 Gaussian 09, Revision D.01,
 Gaussian 09:  AM64L-G09RevD.01 24-Apr-2013

 ----------------------------
 # hf/6-31G* Opt=modredundant
 ----------------------------

 -------------------------
 Optimisation de geometrie
 -------------------------
 Symbolic Z-matrix:
 Charge =  0 Multiplicity = 1

 SCF Done:  E(RHF) =  -228.923211536     A.U. after   12 cycles
 SCF Done:  E(RHF) =  -228.925613259     A.U. after   10 cycles
 SCF Done:  E(RHF) =  -228.925689026     A.U. after   10 cycles
 SCF Done:  E(RHF) =  -228.925706567     A.U. after   10 cycles
 SCF Done:  E(RHF) =  -228.925711244     A.U. after    9 cycles
 SCF Done:  E(RHF) =  -228.925713597     A.U. after    9 cycles
 SCF Done:  E(RHF) =  -228.925714211     A.U. after    8 cycles
 SCF Done:  E(RHF) =  -228.925714389     A.U. after    8 cycles
 Optimization completed.
    -- Stationary point found.
 SCF Done:  E(RHF) =  -228.922773860     A.U. after   10 cycles
 SCF Done:  E(RHF) =  -228.924798513     A.U. after   10 cycles
 Optimization completed.
 SCF Done:  E(RHF) =  -228.918096622     A.U. after    8 cycles
 SCF Done:  E(RHF) =  -228.916844023     A.U. after   11 cycles
 SCF Done:  E(RHF) =  -228.918877616     A.U. after   11 cycles
 SCF Done:  E(RHF) =  -228.918915449     A.U. after   10 cycles
 SCF Done:  E(RHF) =  -228.918915873     A.U. after    8 cycles
    -- Stationary point found.
 SCF Done:  E(RHF) =  -228.916921576     A.U. after   11 cycles
 SCF Done:  E(RHF) =  -228.918893086     A.U. after   11 cycles
 SCF Done:  E(RHF) =  -228.918949270     A.U. after   10 cycles
 SCF Done:  E(RHF) =  -228.918950073     A.U. after    8 cycles
 SCF Done:  E(RHF) =  -228.918950133     A.U. after    8 cycles
 Optimization completed.
    -- Stationary point found.

                         Standard orientation:
 ---------------------------------------------------------------------
 Center     Atomic      Atomic             Coordinates (Angstroms)
 Number     Number       Type             X           Y           Z
 ---------------------------------------------------------------------
      1          6           0        0.695662   -0.539753    0.285430
      2          8           0        1.376590    0.575193   -0.211863
      3          6           0       -0.713678   -0.552474   -0.273222
      4          8           0       -1.456690    0.585428    0.050938
      5          1           0        0.656217   -0.514474    1.376135
      6          1           0        1.189644   -1.467965    0.000599
      7          1           0        2.257844    0.591210    0.133149
      8          1           0       -1.212594   -1.459832    0.066809
      9          1           0       -0.667451   -0.582009   -1.353352
     10          1           0       -1.474764    0.701472    0.990807
 ---------------------------------------------------------------------

 The electronic state is 1-A.
 Alpha  occ. eigenvalues --  -20.55944 -20.55253 -11.27764 -11.27028  -1.37607
 Alpha  occ. eigenvalues --   -1.35316  -1.00290  -0.84588  -0.72003  -0.67444
 Alpha  occ. eigenvalues --   -0.65837  -0.59768  -0.57037  -0.54202  -0.47588
 Alpha  occ. eigenvalues --   -0.44629  -0.43696
 Alpha virt. eigenvalues --    0.21374   0.24777   0.27997   0.29833   0.31776
 Alpha virt. eigenvalues --    0.33645   0.39669   0.41399   0.43997   0.75420
 Alpha virt. eigenvalues --    0.80727   0.81274   0.82788   0.89195   0.90988

 Mulliken charges:
               1
     1  C   -0.024230
     2  O   -0.721800
     3  C    0.010264
     4  O   -0.724754
     5  H    0.126154
     6  H    0.140941
     7  H    0.440736
     8  H    0.136419
     9  H    0.183006
    10  H    0.433261
 Sum of Mulliken charges =  -0.00000

 Dipole moment (field-independent basis, Debye):
    X=              1.6200    Y=             -2.1425    Z=              2.2642  Tot=              3.5131
 Quadrupole moment (field-independent basis, Debye-Ang):
   XX=            -22.6770   YY=            -25.9210   ZZ=            -22.8014
   XY=              0.8993   XZ=             -0.4300   YZ=              2.0847

 Normal termination of Gaussian 09 at Mon Apr 18 00:42:41 2022.
