 Gaussian 09, Revision D.01,
 Gaussian 09:  AM64L-G09RevD.01 24-Apr-2013

 ---------------
 #n AM1 Opt freq
 ---------------

 -------------------------
 Optimisation de geometrie
 -------------------------
 Symbolic Z-matrix:
 Charge =  0 Multiplicity = 1

 SCF Done:  E(RAM1) = -0.351218346396E-01 A.U. after   11 cycles
 SCF Done:  E(RAM1) = -0.383465673948E-01 A.U. after   10 cycles
 SCF Done:  E(RAM1) = -0.387052657859E-01 A.U. after    9 cycles
 SCF Done:  E(RAM1) = -0.387667738341E-01 A.U. after    8 cycles
 Optimization completed.
    -- Stationary point found.
 Normal termination of Gaussian 09 at Sat Apr 16 12:12:39 2022.

 -------------------------------------------------------------
 #N Geom=AllCheck Guess=TCheck SCRF=Check GenChk RAM1/ZDO Freq
 -------------------------------------------------------------

 Structure from the checkpoint file:  "propane-opt.chk"
 -------------------------
 Optimisation de geometrie
 -------------------------
 Charge =  0 Multiplicity = 1

                         Standard orientation:
 ---------------------------------------------------------------------
 Center     Atomic      Atomic             Coordinates (Angstroms)
 Number     Number       Type             X           Y           Z
 ---------------------------------------------------------------------
      1          6           0       -1.248145   -0.260651   -0.000000
      2          6           0       -0.000000    0.584717   -0.000001
      3          6           0        1.248145   -0.260650   -0.000002
      4          1           0       -1.280402   -0.913950    0.905147
      5          1           0       -1.279929   -0.914666   -0.904648
      6          1           0       -2.157395    0.387363   -0.000495
      7          1           0       -0.000002    1.251009   -0.902931
      8          1           0       -0.000000    1.250997    0.902939
      9          1           0        2.157395    0.387363   -0.000859
     10          1           0        1.279750   -0.914931   -0.904463
     11          1           0        1.280583   -0.913687    0.905329
 ---------------------------------------------------------------------

 SCF Done:  E(RAM1) = -0.387667738340E-01 A.U. after    2 cycles

 The electronic state is 1-A.
 Alpha  occ. eigenvalues --   -1.29463  -1.01764  -0.80513  -0.57752  -0.55246
 Alpha  occ. eigenvalues --   -0.50798  -0.47436  -0.44062  -0.43677  -0.41632
 Alpha virt. eigenvalues --    0.14420   0.14886   0.15905   0.16915   0.17689
 Alpha virt. eigenvalues --    0.18074   0.18326   0.19071   0.19170   0.19434

 Mulliken charges:
               1
     1  C   -0.210669
     2  C   -0.159977
     3  C   -0.210669
     4  H    0.071592
     5  H    0.071595
     6  H    0.070981
     7  H    0.076489
     8  H    0.076491
     9  H    0.070981
    10  H    0.071596
    11  H    0.071591
 Sum of Mulliken charges =   0.00000

 Dipole moment (field-independent basis, Debye):
    X=             -0.0000    Y=             -0.0045    Z=              0.0000  Tot=              0.0045
 N-N= 6.008221903792D+01 E-N=-9.491050129830D+01  KE=-1.228457237150D+01
  Exact polarizability:  24.796  -0.000  25.210   0.000  -0.000  25.755
 Approx polarizability:  14.184  -0.000  15.225   0.000  -0.000  15.881
 Calling FoFJK, ICntrl=    100127 FMM=F ISym2X=0 I1Cent= 0 IOpClX= 0 NMat=1 NMatS=1 NMatT=0.
 Full mass-weighted force constant matrix:
 Low frequencies ---  -18.7092   -4.7263   -0.0023   -0.0005    0.0114    3.1063
 Low frequencies ---  138.2000  180.3731  411.0416
 Diagonal vibrational polarizability:
        0.0819947       0.1108530       0.1817929
 Harmonic frequencies (cm**-1), IR intensities (KM/Mole), Raman scattering

                      1                      2                      3
                      A                      A                      A
 Frequencies --    138.1985               180.3688               411.0416
 Red. masses --      1.0300                 1.1332                 2.1221
 Frc consts  --      0.0116                 0.0217                 0.2112
 IR Inten    --      0.0000                 0.0001                 0.3452

                      4                      5                      6
                      A                      A                      A
 Frequencies --    799.1385               959.5504               983.7836
 Red. masses --      1.1019                 1.0927                 1.1899
 Frc consts  --      0.4146                 0.5928                 0.6785
 IR Inten    --      3.4890                 0.0000                 2.1874

                      7                      8                      9
                      A                      A                      A
 Frequencies --   1031.1241              1191.1039              1200.6065
 Red. masses --      1.6416                 1.6235                 1.1103
 Frc consts  --      1.0283                 1.3571                 0.9429
 IR Inten    --      1.1834                 0.3656                 0.0000

                     10                     11                     12
                      A                      A                      A
 Frequencies --   1237.3938              1249.6735              1391.7564
 Red. masses --      2.0829                 1.3640                 1.0739
 Frc consts  --      1.8790                 1.2550                 1.2256
 IR Inten    --      0.2678                 0.0221                 0.0000

                     13                     14                     15
                      A                      A                      A
 Frequencies --   1394.7772              1395.3579              1395.5298
 Red. masses --      1.0708                 1.0686                 1.0714
 Frc consts  --      1.2274                 1.2259                 1.2293
 IR Inten    --      0.7942                 1.9594                 1.0785

                     16                     17                     18
                      A                      A                      A
 Frequencies --   1407.6606              1412.1710              1436.4037
 Red. masses --      1.1547                 1.5213                 1.9969
 Frc consts  --      1.3481                 1.7875                 2.4275
 IR Inten    --      0.2312                 0.0161                 0.7304

                     19                     20                     21
                      A                      A                      A
 Frequencies --   1442.6493              3015.5177              3061.7203
 Red. masses --      1.3462                 1.0869                 1.0904
 Frc consts  --      1.6507                 5.8231                 6.0226
 IR Inten    --      0.2179                 0.0249                 0.0000

                     22                     23                     24
                      A                      A                      A
 Frequencies --   3061.8897              3063.8596              3067.4106
 Red. masses --      1.0842                 1.0904                 1.0946
 Frc consts  --      5.9887                 6.0310                 6.0680
 IR Inten    --      0.0565                 0.0216                 0.2031

                     25                     26                     27
                      A                      A                      A
 Frequencies --   3094.0057              3157.5453              3157.8989
 Red. masses --      1.0528                 1.0275                 1.0298
 Frc consts  --      5.9381                 6.0357                 6.0506
 IR Inten    --      0.0562                 0.0000                 0.0119

 - Thermochemistry -
 -------------------
 Temperature   298.150 Kelvin.  Pressure   1.00000 Atm.
 Atom     1 has atomic number  6 and mass  12.00000

 Molecular mass:    44.06260 amu.
 Principal axes and moments of inertia in atomic units:
                           1         2         3
     Eigenvalues --    62.49831 208.26896 235.45424
           X            1.00000  -0.00000   0.00000
           Y            0.00000   1.00000  -0.00000
           Z           -0.00000   0.00000   1.00000
 This molecule is an asymmetric top.
 Rotational symmetry number  1.
 Rotational temperatures (Kelvin)      1.38586     0.41587     0.36786
 Rotational constants (GHZ):          28.87664     8.66544     7.66493
 Zero-point vibrational energy     271182.3 (Joules/Mol)
                                   64.81412 (Kcal/Mol)
 Warning -- explicit consideration of   3 degrees of freedom as
           vibrations may cause significant error
 Vibrational temperatures:    198.84   259.51   591.40  1149.78  1380.58
          (Kelvin)           1415.44  1483.56  1713.73  1727.40  1780.33
                             1798.00  2002.42  2006.77  2007.61  2007.85
                             2025.31  2031.80  2066.66  2075.65  4338.65
                             4405.13  4405.37  4408.21  4413.31  4451.58
                             4543.00  4543.51

 Zero-point correction=                           0.103288 (Hartree/Particle)
 Thermal correction to Energy=                    0.107989
 Thermal correction to Enthalpy=                  0.108933
 Thermal correction to Gibbs Free Energy=         0.077200
 Sum of electronic and zero-point Energies=              0.064521
 Sum of electronic and thermal Energies=                 0.069222
 Sum of electronic and thermal Enthalpies=               0.070166
 Sum of electronic and thermal Free Energies=            0.038434

                     E (Thermal)             CV                S
                      KCal/Mol        Cal/Mol-Kelvin    Cal/Mol-Kelvin
 Total                   67.764             14.599             66.786
 Electronic               0.000              0.000              0.000
 Translational            0.889              2.981             37.275
 Rotational               0.889              2.981             22.643
 Vibrational             65.986              8.637              6.868
 Vibration     1          0.614              1.915              2.829
 Vibration     2          0.629              1.866              2.325
 Vibration     3          0.775              1.446              0.923

 Normal termination of Gaussian 09 at Sat Apr 16 12:12:41 2022.
