 Gaussian 09, Revision D.01,
 Gaussian 09:  AM64L-G09RevD.01 24-Apr-2013

 ------------------------------------
 #n ZINDO(NSTATE=10) pop=full gfinput
 ------------------------------------

 ----------
 UV-spectra
 ----------
 Symbolic Z-matrix:
 Charge =  0 Multiplicity = 1

                         Standard orientation:
 ---------------------------------------------------------------------
 Center     Atomic      Atomic             Coordinates (Angstroms)
 Number     Number       Type             X           Y           Z
 ---------------------------------------------------------------------
      1          8           0        0.000000    0.000000    2.688495
      2          8           0        0.000000    0.000000   -2.688495
      3          6           0        0.000000    0.000000    1.452908
      4          6           0        0.000000    0.000000   -1.452908
      5          6           0        0.000000    1.254776    0.669060
      6          6           0       -0.000000   -1.254776    0.669060
      7          6           0        0.000000    1.254776   -0.669060
      8          6           0       -0.000000   -1.254776   -0.669060
      9          1           0        0.000000    2.187230    1.257835
     10          1           0       -0.000000   -2.187230    1.257835
     11          1           0        0.000000    2.187230   -1.257835
     12          1           0       -0.000000   -2.187230   -1.257835
 ---------------------------------------------------------------------

 SCF Done:  E(RZINDO/S) =  -60.1085623161     A.U. after   10 cycles

 Excitation energies and oscillator strengths:

 Excited State   1:      Singlet-B1G    2.3734 eV  522.39 nm  f=0.0000  <S**2>=0.000
      18 -> 23        -0.28748
      20 -> 21         0.63200
      20 -> 25        -0.11286
 This state for optimization and/or second-order correction.
 Total Energy, E(CIS) =  -60.0213406790
 Copying the excited state density for this state as the 1-particle RhoCI density.

 Excited State   2:      Singlet-AU     2.4178 eV  512.80 nm  f=0.0000  <S**2>=0.000
      18 -> 21         0.62689
      18 -> 25        -0.12596
      20 -> 23        -0.29339

 Excited State   3:      Singlet-B3G    3.9637 eV  312.80 nm  f=0.0000  <S**2>=0.000
      17 -> 21         0.70079

 Excited State   4:      Singlet-B1U    4.8767 eV  254.24 nm  f=0.9073  <S**2>=0.000
      17 -> 22        -0.11667
      19 -> 21         0.68576

 Excited State   5:      Singlet-B1G    5.7586 eV  215.30 nm  f=0.0000  <S**2>=0.000
      15 -> 21        -0.32485
      18 -> 23         0.46611
      20 -> 21         0.29092
      20 -> 25         0.29377

 Excited State   6:      Singlet-B3U    6.0823 eV  203.84 nm  f=0.0028  <S**2>=0.000
      15 -> 22        -0.13534
      20 -> 22         0.68328

 Excited State   7:      Singlet-AU     6.0994 eV  203.27 nm  f=0.0000  <S**2>=0.000
      18 -> 21         0.31577
      18 -> 25         0.28288
      20 -> 23         0.55847

 Excited State   8:      Singlet-B2G    6.4355 eV  192.66 nm  f=0.0000  <S**2>=0.000
      14 -> 21         0.32321
      18 -> 22         0.61786

 Excited State   9:      Singlet-B3G    6.4568 eV  192.02 nm  f=0.0000  <S**2>=0.000
      18 -> 24        -0.12016
      19 -> 22         0.66531
      20 -> 26         0.15110

 Excited State  10:      Singlet-B2U    6.6770 eV  185.69 nm  f=0.1037  <S**2>=0.000
      17 -> 23         0.64674
      18 -> 26         0.15099
      20 -> 24        -0.23305

 The electronic state is 1-AG.
 Alpha  occ. eigenvalues --   -1.66502  -1.58151  -1.44422  -1.26611  -1.00808
 Alpha  occ. eigenvalues --   -0.98510  -0.93310  -0.74186  -0.71026  -0.64694
 Alpha  occ. eigenvalues --   -0.61058  -0.58233  -0.56757  -0.53866  -0.53088
 Alpha  occ. eigenvalues --   -0.50339  -0.39567  -0.39433  -0.38826  -0.38791
 Alpha virt. eigenvalues --   -0.08767   0.00565   0.02047   0.05835   0.07744
 Alpha virt. eigenvalues --    0.09260   0.10019   0.17110   0.17764   0.20292
 Alpha virt. eigenvalues --    0.28758   0.32047   0.34448   0.40434   0.42768

 Mulliken charges:
               1
     1  O   -0.463014
     2  O   -0.463014
     3  C    0.325593
     4  C    0.325593
     5  C    0.008904
     6  C    0.008904
     7  C    0.008904
     8  C    0.008904
     9  H    0.059806
    10  H    0.059806
    11  H    0.059806
    12  H    0.059806
 Sum of Mulliken charges =  -0.00000

 Dipole moment (field-independent basis, Debye):
    X=              0.0000    Y=             -0.0000    Z=             -0.0000  Tot=              0.0000
 N-N= 1.137021362865D+02 E-N= 0.000000000000D+00  KE=-3.158578566996D+02
 Symmetry AG   KE=-8.156146198603D+01
 Symmetry B1G  KE=-1.518730558573D+01
 Symmetry B2G  KE=-1.558363705486D+01
 Symmetry B3G  KE=-4.592177179008D+01
 Symmetry AU   KE= 4.624859853809D-16
 Symmetry B1U  KE=-6.419834377293D+01
 Symmetry B2U  KE=-6.250207635112D+01
 Symmetry B3U  KE=-3.090326015881D+01
 Orbital energies and kinetic energies (alpha):

 Normal termination of Gaussian 09 at Mon Apr 11 19:19:53 2022.
