 Gaussian 09, Revision D.01,
 Gaussian 09:  AM64L-G09RevD.01 24-Apr-2013

 ---------------
 #n AM1 Opt freq
 ---------------

 -------------------------
 Optimisation de geometrie
 -------------------------
 Symbolic Z-matrix:
 Charge =  0 Multiplicity = 1

 SCF Done:  E(RAM1) =  0.765486502556E-02 A.U. after   11 cycles
 SCF Done:  E(RAM1) =  0.254945174824E-02 A.U. after   10 cycles
 SCF Done:  E(RAM1) = -0.429123087756E-03 A.U. after   10 cycles
 SCF Done:  E(RAM1) = -0.155749794881E-02 A.U. after   10 cycles
 SCF Done:  E(RAM1) = -0.169358884244E-02 A.U. after    9 cycles
 SCF Done:  E(RAM1) = -0.171028440117E-02 A.U. after    8 cycles
 Optimization completed.
    -- Stationary point found.
 Normal termination of Gaussian 09 at Sat Apr 16 11:43:17 2022.

 -------------------------------------------------------------
 #N Geom=AllCheck Guess=TCheck SCRF=Check GenChk RAM1/ZDO Freq
 -------------------------------------------------------------

 Structure from the checkpoint file:  "cyclobutane-opt.chk"
 -------------------------
 Optimisation de geometrie
 -------------------------
 Charge =  0 Multiplicity = 1

                         Standard orientation:
 ---------------------------------------------------------------------
 Center     Atomic      Atomic             Coordinates (Angstroms)
 Number     Number       Type             X           Y           Z
 ---------------------------------------------------------------------
      1          6           0       -0.850582    0.683479    0.000035
      2          6           0        0.683478    0.850580   -0.000035
      3          6           0        0.850583   -0.683479    0.000034
      4          6           0       -0.683480   -0.850582   -0.000033
      5          1           0       -1.349783    1.084600   -0.906527
      6          1           0       -1.349933    1.084726    0.906538
      7          1           0        1.084610    1.349778    0.906525
      8          1           0        1.084733    1.349931   -0.906536
      9          1           0        1.349925   -1.084721    0.906543
     10          1           0        1.349777   -1.084605   -0.906527
     11          1           0       -1.084603   -1.349778    0.906527
     12          1           0       -1.084722   -1.349920   -0.906545
 ---------------------------------------------------------------------

 SCF Done:  E(RAM1) = -0.171028440154E-02 A.U. after    2 cycles

 The electronic state is 1-A.
 Alpha  occ. eigenvalues --   -1.40592  -0.97191  -0.97191  -0.72316  -0.61368
 Alpha  occ. eigenvalues --   -0.58235  -0.48648  -0.48045  -0.48045  -0.41625
 Alpha  occ. eigenvalues --   -0.41625  -0.40395
 Alpha virt. eigenvalues --    0.13707   0.14052   0.14052   0.15758   0.17132
 Alpha virt. eigenvalues --    0.17191   0.17191   0.18278   0.18278   0.18311
 Alpha virt. eigenvalues --    0.20178   0.20300

 Mulliken charges:
               1
     1  C   -0.173420
     2  C   -0.173420
     3  C   -0.173421
     4  C   -0.173421
     5  H    0.086696
     6  H    0.086725
     7  H    0.086695
     8  H    0.086724
     9  H    0.086725
    10  H    0.086697
    11  H    0.086697
    12  H    0.086725
 Sum of Mulliken charges =   0.00000

 Dipole moment (field-independent basis, Debye):
    X=              0.0000    Y=              0.0000    Z=             -0.0000  Tot=              0.0000
 N-N= 8.342211042048D+01 E-N=-1.360355479302D+02  KE=-1.490657762966D+01
  Exact polarizability:  30.627   0.000  30.627   0.000   0.000  31.111
 Approx polarizability:  18.525   0.000  18.525   0.000   0.000  19.630
 Calling FoFJK, ICntrl=    100127 FMM=F ISym2X=0 I1Cent= 0 IOpClX= 0 NMat=1 NMatS=1 NMatT=0.
 Full mass-weighted force constant matrix:
 Low frequencies ---  -15.5185  -15.4652  -12.9521   -0.0022   -0.0002   -0.0002
 Low frequencies ---  210.2895  783.0180  801.1590
 Diagonal vibrational polarizability:
        0.0298396       0.0298419       0.1088110
 Harmonic frequencies (cm**-1), IR intensities (KM/Mole), Raman scattering

                      1                      2                      3
                      A                      A                      A
 Frequencies --    210.2895               783.0180               801.1590
 Red. masses --      1.5145                 1.0556                 3.9512
 Frc consts  --      0.0395                 0.3813                 1.4942
 IR Inten    --      0.0000                 2.1024                 0.0000

                      4                      5                      6
                      A                      A                      A
 Frequencies --    834.8043               834.8061               969.9842
 Red. masses --      1.1122                 1.1122                 1.0078
 Frc consts  --      0.4567                 0.4567                 0.5587
 IR Inten    --      0.0000                 0.0000                 0.0000

                      7                      8                      9
                      A                      A                      A
 Frequencies --   1063.4870              1074.7110              1074.7156
 Red. masses --      1.0078                 1.7485                 1.7484
 Frc consts  --      0.6716                 1.1899                 1.1898
 IR Inten    --      0.0000                 0.4063                 0.4063

                     10                     11                     12
                      A                      A                      A
 Frequencies --   1092.1169              1134.9999              1135.0003
 Red. masses --      4.5665                 1.2415                 1.2415
 Frc consts  --      3.2090                 0.9423                 0.9423
 IR Inten    --      0.0000                 0.0000                 0.0000

                     13                     14                     15
                      A                      A                      A
 Frequencies --   1185.6207              1193.0168              1273.8631
 Red. masses --      2.0386                 1.1674                 2.3506
 Frc consts  --      1.6884                 0.9790                 2.2474
 IR Inten    --      0.0000                 0.0000                 0.0000

                     16                     17                     18
                      A                      A                      A
 Frequencies --   1313.6962              1314.4242              1314.4262
 Red. masses --      1.3850                 2.0245                 2.0245
 Frc consts  --      1.4082                 2.0608                 2.0609
 IR Inten    --      0.0000                 0.5574                 0.5573

                     19                     20                     21
                      A                      A                      A
 Frequencies --   1413.8025              1413.8030              1425.0143
 Red. masses --      1.1008                 1.1008                 1.1536
 Frc consts  --      1.2964                 1.2964                 1.3802
 IR Inten    --      0.4812                 0.4811                 0.0000

                     22                     23                     24
                      A                      A                      A
 Frequencies --   1451.7909              3081.1975              3100.4542
 Red. masses --      1.4533                 1.0905                 1.0960
 Frc consts  --      1.8047                 6.0999                 6.2073
 IR Inten    --      0.0000                 0.0000                 0.0000

                     25                     26                     27
                      A                      A                      A
 Frequencies --   3100.4547              3121.6689              3155.4505
 Red. masses --      1.0960                 1.1032                 1.0479
 Frc consts  --      6.2073                 6.3341                 6.1474
 IR Inten    --      0.0000                 5.9857                 0.0000

                     28                     29                     30
                      A                      A                      A
 Frequencies --   3159.9738              3159.9741              3169.4920
 Red. masses --      1.0471                 1.0471                 1.0550
 Frc consts  --      6.1601                 6.1601                 6.2444
 IR Inten    --      1.9352                 1.9351                 0.0001

 - Thermochemistry -
 -------------------
 Temperature   298.150 Kelvin.  Pressure   1.00000 Atm.
 Atom     1 has atomic number  6 and mass  12.00000

 Molecular mass:    56.06260 amu.
 Principal axes and moments of inertia in atomic units:
                           1         2         3
     Eigenvalues --   168.87297 168.87344 290.42359
           X            0.99843   0.05599   0.00000
           Y           -0.05599   0.99843   0.00000
           Z           -0.00000  -0.00000   1.00000
 This molecule is an asymmetric top.
 Rotational symmetry number  1.
 Rotational temperatures (Kelvin)      0.51289     0.51289     0.29823
 Rotational constants (GHZ):          10.68698    10.68694     6.21417
 Zero-point vibrational energy     295221.7 (Joules/Mol)
                                   70.55968 (Kcal/Mol)
 Warning -- explicit consideration of   1 degrees of freedom as
           vibrations may cause significant error
 Vibrational temperatures:    302.56  1126.59  1152.69  1201.10  1201.10
          (Kelvin)           1395.59  1530.12  1546.27  1546.27  1571.31
                             1633.01  1633.01  1705.84  1716.48  1832.80
                             1890.11  1891.16  1891.16  2034.14  2034.14
                             2050.28  2088.80  4433.15  4460.86  4460.86
                             4491.38  4539.98  4546.49  4546.49  4560.19

 Zero-point correction=                           0.112444 (Hartree/Particle)
 Thermal correction to Energy=                    0.116421
 Thermal correction to Enthalpy=                  0.117365
 Thermal correction to Gibbs Free Energy=         0.086386
 Sum of electronic and zero-point Energies=              0.110734
 Sum of electronic and thermal Energies=                 0.114711
 Sum of electronic and thermal Enthalpies=               0.115655
 Sum of electronic and thermal Free Energies=            0.084676

                     E (Thermal)             CV                S
                      KCal/Mol        Cal/Mol-Kelvin    Cal/Mol-Kelvin
 Total                   73.055             13.821             65.202
 Electronic               0.000              0.000              0.000
 Translational            0.889              2.981             37.993
 Rotational               0.889              2.981             23.631
 Vibrational             71.278              7.859              3.578
 Vibration     1          0.642              1.825              2.041

 Optimization completed.
    -- Stationary point found.
 Normal termination of Gaussian 09 at Sat Apr 16 11:43:19 2022.
