 Gaussian 09, Revision D.01,
 Gaussian 09:  AM64L-G09RevD.01 24-Apr-2013

 ---------------
 # hf/6-31G* opt
 ---------------

 -------------------------
 Optimisation de geometrie
 -------------------------
 Symbolic Z-matrix:
 Charge =  0 Multiplicity = 1

 SCF Done:  E(RHF) =  -306.978120245     A.U. after   12 cycles
 SCF Done:  E(RHF) =  -306.983424463     A.U. after   11 cycles
 SCF Done:  E(RHF) =  -306.986443079     A.U. after   12 cycles
 SCF Done:  E(RHF) =  -306.988984816     A.U. after   13 cycles
 SCF Done:  E(RHF) =  -306.989650671     A.U. after   11 cycles
 SCF Done:  E(RHF) =  -306.989966342     A.U. after   11 cycles
 SCF Done:  E(RHF) =  -306.990046021     A.U. after   11 cycles
 SCF Done:  E(RHF) =  -306.990065968     A.U. after    9 cycles
 SCF Done:  E(RHF) =  -306.990072934     A.U. after    9 cycles
 SCF Done:  E(RHF) =  -306.990076571     A.U. after    9 cycles
 SCF Done:  E(RHF) =  -306.990079062     A.U. after    9 cycles
 SCF Done:  E(RHF) =  -306.990079451     A.U. after    8 cycles
 Optimization completed.
    -- Stationary point found.

                         Standard orientation:
 ---------------------------------------------------------------------
 Center     Atomic      Atomic             Coordinates (Angstroms)
 Number     Number       Type             X           Y           Z
 ---------------------------------------------------------------------
      1          6           0       -0.498722    0.661755   -0.784378
      2          6           0       -1.447643    0.593839    0.407439
      3          8           0       -2.278076   -0.541421    0.392110
      4          6           0        0.491449   -0.502923   -0.903245
      5          6           0        1.449551   -0.654521    0.269095
      6          8           0        2.154401    0.548297    0.431893
      7          1           0        0.054524    1.593468   -0.728763
      8          1           0       -1.096478    0.695355   -1.690816
      9          1           0       -2.114888    1.445523    0.380556
     10          1           0       -0.896610    0.652248    1.343318
     11          1           0       -1.772950   -1.311310    0.608905
     12          1           0        1.081762   -0.364154   -1.803744
     13          1           0       -0.046124   -1.440203   -1.031429
     14          1           0        2.133925   -1.476573    0.068621
     15          1           0        0.908760   -0.903544    1.181388
     16          1           0        2.769667    0.465269    1.146471
 ---------------------------------------------------------------------

 The electronic state is 1-A.
 Alpha  occ. eigenvalues --  -20.56208 -20.55145 -11.27792 -11.26372 -11.22149
 Alpha  occ. eigenvalues --  -11.21071  -1.36927  -1.35741  -1.06498  -0.96940
 Alpha  occ. eigenvalues --   -0.87313  -0.78283  -0.71484  -0.69557  -0.64983
 Alpha  occ. eigenvalues --   -0.61892  -0.59420  -0.58236  -0.54201  -0.52613
 Alpha  occ. eigenvalues --   -0.48945  -0.48649  -0.46096  -0.44193  -0.42331
 Alpha virt. eigenvalues --    0.19976   0.23138   0.26495   0.27630   0.29675
 Alpha virt. eigenvalues --    0.31921   0.33445   0.35143   0.35901   0.36213
 Alpha virt. eigenvalues --    0.39561   0.40015   0.42070   0.43194   0.47538

 Mulliken charges:
               1
     1  C   -0.325679
     2  C   -0.007076
     3  O   -0.742909
     4  C   -0.346513
     5  C    0.002554
     6  O   -0.737134
     7  H    0.183105
     8  H    0.169594
     9  H    0.172404
    10  H    0.144586
    11  H    0.436538
    12  H    0.180985
    13  H    0.153490
    14  H    0.147178
    15  H    0.127626
    16  H    0.441253
 Sum of Mulliken charges =  -0.00000

 Dipole moment (field-independent basis, Debye):
    X=              2.2208    Y=             -1.2672    Z=              1.1907  Tot=              2.8205
 Quadrupole moment (field-independent basis, Debye-Ang):
   XX=            -43.2279   YY=            -36.1640   ZZ=            -35.9619
   XY=             -3.3026   XZ=              3.8475   YZ=             -0.5976

 1\1\GINC-GTX1080DELTA\FOpt\RHF\6-31G(d)\C4H10O2\MVEROT\17-Apr-2022\0\\
 # hf/6-31G* opt\\Optimisation de geometrie\\0,1\C,1.81890354,1.0985794
 979,1.4856438968\C,1.3546442971,1.2800330477,2.9268343238\O,1.09041784
 58,0.0638786946,3.5824411896\C,3.1207970428,0.3080215604,1.3091958306\
 C,4.3433978124,0.9266180101,1.9709424268\O,4.512154187,2.228864342,1.4
 751973093\H,1.9362315279,2.079828819,1.0377067292\H,1.0320189465,0.586
 6372703,0.9390186325\H,0.4202161797,1.8260146759,2.9340462848\H,2.0716
 771451,1.8713609318,3.4917376137\H,1.903675527,-0.3758549586,3.7827591

 Normal termination of Gaussian 09 at Sun Apr 17 23:38:50 2022.
