 Gaussian 09, Revision D.01,
 Gaussian 09:  AM64L-G09RevD.01 24-Apr-2013

 ------------------
 # zindo(Nstate=10)
 ------------------

 -----
 title
 -----
 Symbolic Z-matrix:
 Charge =  0 Multiplicity = 1

                         Standard orientation:
 ---------------------------------------------------------------------
 Center     Atomic      Atomic             Coordinates (Angstroms)
 Number     Number       Type             X           Y           Z
 ---------------------------------------------------------------------
      1          6           0       -0.328956    1.449169   -0.158096
      2          6           0       -1.597366    0.695628   -0.072179
      3          6           0        0.935818    0.711699    0.021737
      4          8           0       -0.371153    2.664602   -0.424173
      5          6           0       -0.329076   -1.448990    0.159182
      6          6           0        0.935705   -0.711709   -0.021367
      7          8           0       -0.371261   -2.664163    0.426426
      8          6           0       -1.597431   -0.695483    0.072401
      9          6           0       -2.813363    1.387489   -0.144411
     10          6           0        2.151925   -1.416497   -0.170074
     11          6           0       -2.813474   -1.387337    0.143878
     12          6           0        2.152284    1.416250    0.169718
     13          6           0       -4.020349    0.693692   -0.072257
     14          6           0       -4.020406   -0.693530    0.070920
     15          6           0        3.374986    0.675703    0.095398
     16          6           0        3.374807   -0.676164   -0.096709
     17          1           0       -2.800319    2.483737   -0.261755
     18          7           0        2.239184   -2.768057   -0.473328
     19          1           0       -2.800511   -2.483577    0.261290
     20          7           0        2.240065    2.767746    0.473040
     21          1           0       -4.972076    1.243072   -0.129389
     22          1           0       -4.972177   -1.242898    0.127440
     23          1           0        4.335784    1.209217    0.186102
     24          1           0        4.335448   -1.209833   -0.188152
     25          1           0        3.088864    3.208447    0.199572
     26          1           0        1.425864    3.323103    0.328741
     27          1           0        3.088097   -3.208904   -0.200448
     28          1           0        1.424976   -3.323206   -0.328264
 ---------------------------------------------------------------------

 SCF Done:  E(RZINDO/S) =  -127.001187847     A.U. after   16 cycles

 Excitation energies and oscillator strengths:

 Excited State   1:      Singlet-A      2.6436 eV  469.00 nm  f=0.0001  <S**2>=0.000
      39 -> 46        -0.29101
      39 -> 49         0.20491
      40 -> 45         0.46586
      40 -> 50        -0.13747
      41 -> 45         0.28575
      43 -> 45         0.12518
 This state for optimization and/or second-order correction.
 Total Energy, E(CIS) =  -126.904038428
 Copying the excited state density for this state as the 1-particle RhoCI density.

 Excited State   2:      Singlet-A      2.6541 eV  467.14 nm  f=0.0177  <S**2>=0.000
      39 -> 45         0.52153
      39 -> 50        -0.16027
      40 -> 46        -0.25185
      40 -> 49         0.16212
      41 -> 46        -0.13559
      41 -> 49         0.10062
      44 -> 45         0.21756

 Excited State   3:      Singlet-A      2.9199 eV  424.61 nm  f=0.2764  <S**2>=0.000
      39 -> 45        -0.17156
      44 -> 45         0.64250
      44 -> 47         0.13244

 Excited State   4:      Singlet-A      3.7327 eV  332.16 nm  f=0.0151  <S**2>=0.000
      40 -> 45        -0.15199
      43 -> 45         0.52292
      44 -> 46        -0.36083
      44 -> 48        -0.16927

 Excited State   5:      Singlet-A      4.1149 eV  301.31 nm  f=0.0793  <S**2>=0.000
      41 -> 46         0.11953
      42 -> 45         0.59105
      42 -> 47        -0.21812
      43 -> 46        -0.14941
      43 -> 48         0.16504

 Excited State   6:      Singlet-A      4.1200 eV  300.93 nm  f=0.0307  <S**2>=0.000
      41 -> 45        -0.17447
      43 -> 45         0.41509
      44 -> 46         0.43417
      44 -> 48         0.26879

 Excited State   7:      Singlet-A      4.3745 eV  283.43 nm  f=0.0004  <S**2>=0.000
      41 -> 46         0.11551
      43 -> 46         0.13850
      43 -> 48         0.11466
      44 -> 45        -0.15210
      44 -> 47         0.57649
      44 -> 50         0.25359

 Excited State   8:      Singlet-A      4.6844 eV  264.67 nm  f=0.3741  <S**2>=0.000
      40 -> 45        -0.23334
      41 -> 45         0.52277
      42 -> 46        -0.14257
      44 -> 46         0.29279
      44 -> 49        -0.12598

 Excited State   9:      Singlet-A      4.9815 eV  248.89 nm  f=0.3352  <S**2>=0.000
      38 -> 45         0.13206
      41 -> 45         0.17814
      44 -> 46        -0.19210
      44 -> 48         0.47610
      44 -> 49         0.36962

 Excited State  10:      Singlet-A      5.1022 eV  243.00 nm  f=0.8180  <S**2>=0.000
      41 -> 46        -0.11507
      41 -> 48         0.20402
      42 -> 45         0.29183
      42 -> 47         0.13368
      42 -> 50        -0.13175
      43 -> 46         0.52462
      43 -> 48        -0.11096
      44 -> 47        -0.11243

 The electronic state is 1-A.
 Alpha  occ. eigenvalues --   -1.72887  -1.63579  -1.62792  -1.52565  -1.49373
 Alpha  occ. eigenvalues --   -1.43283  -1.32544  -1.22018  -1.21408  -1.06998
 Alpha  occ. eigenvalues --   -1.04889  -1.01865  -0.98241  -0.91014  -0.88277
 Alpha  occ. eigenvalues --   -0.84704  -0.78402  -0.77399  -0.70564  -0.68155
 Alpha  occ. eigenvalues --   -0.65864  -0.65751  -0.62569  -0.61157  -0.58950
 Alpha  occ. eigenvalues --   -0.57866  -0.56840  -0.55521  -0.53706  -0.52571
 Alpha  occ. eigenvalues --   -0.52255  -0.50137  -0.49148  -0.46725  -0.46480
 Alpha  occ. eigenvalues --   -0.46072  -0.45803  -0.39726  -0.36396  -0.35847
 Alpha  occ. eigenvalues --   -0.35039  -0.34491  -0.34195  -0.29023
 Alpha virt. eigenvalues --   -0.05703  -0.01014   0.00699   0.01586   0.05399
 Alpha virt. eigenvalues --    0.05439   0.06443   0.09154   0.09157   0.09887
 Alpha virt. eigenvalues --    0.11096   0.11174   0.12102   0.12876   0.13902

 Mulliken charges:
               1
     1  C    0.320934
     2  C    0.013597
     3  C   -0.020964
     4  O   -0.531917
     5  C    0.320956
     6  C   -0.020938
     7  O   -0.531908
     8  C    0.013605
     9  C   -0.000624
    10  C    0.134272
    11  C   -0.000633
    12  C    0.134309
    13  C   -0.017201
    14  C   -0.017195
    15  C   -0.033242
    16  C   -0.033220
    17  H    0.055007
    18  N   -0.320081
    19  H    0.055000
    20  N   -0.320061
    21  H    0.038276
    22  H    0.038277
    23  H    0.037777
    24  H    0.037779
    25  H    0.150633
    26  H    0.173469
    27  H    0.150632
    28  H    0.173460
 Sum of Mulliken charges =   0.00000

 Dipole moment (field-independent basis, Debye):
    X=              1.2583    Y=             -0.0007    Z=             -0.0051  Tot=              1.2583
 N-N= 4.720763688422D+02 E-N= 0.000000000000D+00  KE=-1.128893296794D+03
 1\1\GINC-GTX1080ALPHA\SP\RZINDO\STO-3G\C14H10N2O2\Z485411\07-Apr-2020\
 0\\# zindo(Nstate=10)\\title\\0,1\C,0,0.042121,-0.263909,0.016696\C,0,
 0.021263,-0.123297,1.487703\C,0,1.315754,-0.030468,-0.689858\O,0,-0.99
 9441,-0.618146,-0.565987\C,0,2.493281,0.264418,1.504201\C,0,2.532043,0
 .030616,0.048287\O,0,3.490776,0.619789,2.158847\C,0,1.198294,0.122607,
 2.202001\C,0,-1.194914,-0.246085,2.172084\C,0,3.773183,-0.065999,-0.62
 1242\C,0,1.152907,0.244314,3.59687\C,0,1.336801,0.065767,-2.099956\C,0
 ,-1.233987,-0.123559,3.560189\C,0,-0.06018,0.120662,4.272521\C,0,2.607
 137,0.045955,-2.759339\C,0,3.771718,-0.046796,-2.052516\H,0,-2.115505,

 Normal termination of Gaussian 09 at Tue Apr  7 08:32:08 2020.
