 Gaussian 09, Revision D.01,
 Gaussian 09:  AM64L-G09RevD.01 24-Apr-2013

 ------------------
 # zindo(Nstate=10)
 ------------------

 -----
 title
 -----
 Symbolic Z-matrix:
 Charge =  0 Multiplicity = 1

                         Standard orientation:
 ---------------------------------------------------------------------
 Center     Atomic      Atomic             Coordinates (Angstroms)
 Number     Number       Type             X           Y           Z
 ---------------------------------------------------------------------
      1          6           0       -0.336850    1.459990   -0.000061
      2          6           0        0.932397    0.713512    0.000007
      3          6           0       -1.601455    0.700263   -0.000021
      4          8           0       -0.368576    2.705063   -0.000113
      5          6           0       -0.336849   -1.459990    0.000059
      6          6           0       -1.601455   -0.700263    0.000023
      7          8           0       -0.368574   -2.705063    0.000088
      8          6           0        0.932395   -0.713511   -0.000008
      9          6           0        2.155719    1.395126    0.000054
     10          6           0       -2.817325   -1.395261    0.000045
     11          6           0        2.155717   -1.395126   -0.000052
     12          6           0       -2.817325    1.395261   -0.000039
     13          6           0        3.390595    0.683621    0.000041
     14          6           0        3.390594   -0.683624   -0.000025
     15          6           0       -4.024722    0.697010   -0.000015
     16          6           0       -4.024722   -0.697010    0.000026
     17          8           0        2.339982    2.748601    0.000089
     18          1           0       -2.805393   -2.498108    0.000083
     19          8           0        2.339978   -2.748602   -0.000092
     20          1           0       -2.805393    2.498109   -0.000078
     21          1           0        4.326651    1.264204    0.000077
     22          1           0        4.326649   -1.264207   -0.000050
     23          1           0       -4.976400    1.250018   -0.000030
     24          1           0       -4.976400   -1.250017    0.000045
     25          1           0        1.493759    3.223239    0.000238
     26          1           0        1.493753   -3.223236   -0.000260
 ---------------------------------------------------------------------

 SCF Done:  E(RZINDO/S) =  -132.252050270     A.U. after   14 cycles

 Excitation energies and oscillator strengths:

 Excited State   1:      Singlet-A      2.6302 eV  471.39 nm  f=0.0000  <S**2>=0.000
      39 -> 46         0.29663
      39 -> 49        -0.20966
      40 -> 45         0.57207
      40 -> 50        -0.15608
 This state for optimization and/or second-order correction.
 Total Energy, E(CIS) =  -132.155393795
 Copying the excited state density for this state as the 1-particle RhoCI density.

 Excited State   2:      Singlet-A      2.6629 eV  465.59 nm  f=0.0000  <S**2>=0.000
      39 -> 45         0.56554
      39 -> 50        -0.16473
      40 -> 46         0.30475
      40 -> 49        -0.20902

 Excited State   3:      Singlet-A      3.2602 eV  380.29 nm  f=0.3198  <S**2>=0.000
      44 -> 45         0.67382
      44 -> 47         0.13834

 Excited State   4:      Singlet-A      3.8598 eV  321.22 nm  f=0.0044  <S**2>=0.000
      41 -> 45         0.20722
      41 -> 47         0.10411
      43 -> 45         0.61351
      44 -> 46         0.19933

 Excited State   5:      Singlet-A      4.0708 eV  304.57 nm  f=0.0821  <S**2>=0.000
      42 -> 45         0.61456
      42 -> 47        -0.20773
      43 -> 46        -0.16123
      43 -> 48         0.17128

 Excited State   6:      Singlet-A      4.3491 eV  285.08 nm  f=0.0336  <S**2>=0.000
      41 -> 45         0.34859
      42 -> 46        -0.13168
      43 -> 45        -0.27801
      44 -> 46         0.42204
      44 -> 48         0.27300

 Excited State   7:      Singlet-A      4.7697 eV  259.94 nm  f=0.0209  <S**2>=0.000
      41 -> 46        -0.23418
      41 -> 48        -0.16128
      43 -> 46        -0.12169
      43 -> 48        -0.12632
      44 -> 45        -0.16923
      44 -> 47         0.53048
      44 -> 50         0.25020

 Excited State   8:      Singlet-A      4.8286 eV  256.77 nm  f=0.4787  <S**2>=0.000
      41 -> 45         0.51363
      42 -> 46        -0.13302
      42 -> 48         0.10611
      44 -> 46        -0.41664
      44 -> 48        -0.11501

 Excited State   9:      Singlet-A      5.1209 eV  242.11 nm  f=0.6478  <S**2>=0.000
      41 -> 46        -0.10766
      41 -> 48         0.14789
      42 -> 45         0.29275
      42 -> 47         0.18260
      42 -> 50        -0.15554
      43 -> 46         0.50864
      43 -> 48        -0.21679

 Excited State  10:      Singlet-A      5.3927 eV  229.91 nm  f=0.2163  <S**2>=0.000
      38 -> 45        -0.12557
      41 -> 47         0.11607
      43 -> 47         0.11014
      44 -> 46        -0.23767
      44 -> 48         0.47802
      44 -> 49         0.37283

 The electronic state is 1-A.
 Alpha  occ. eigenvalues --   -1.75249  -1.68159  -1.65609  -1.53894  -1.53512
 Alpha  occ. eigenvalues --   -1.50518  -1.34846  -1.22893  -1.22188  -1.08060
 Alpha  occ. eigenvalues --   -1.05245  -1.03246  -0.99289  -0.91831  -0.89636
 Alpha  occ. eigenvalues --   -0.84928  -0.76112  -0.72849  -0.72829  -0.68368
 Alpha  occ. eigenvalues --   -0.66425  -0.63882  -0.60118  -0.59630  -0.58141
 Alpha  occ. eigenvalues --   -0.57525  -0.56495  -0.54606  -0.54382  -0.54277
 Alpha  occ. eigenvalues --   -0.52878  -0.49600  -0.49294  -0.48930  -0.47703
 Alpha  occ. eigenvalues --   -0.47012  -0.46884  -0.43119  -0.37237  -0.36529
 Alpha  occ. eigenvalues --   -0.36237  -0.35308  -0.35227  -0.31671
 Alpha virt. eigenvalues --   -0.06787  -0.01855  -0.00024   0.00797   0.04592
 Alpha virt. eigenvalues --    0.04782   0.05406   0.08338   0.08700   0.08985
 Alpha virt. eigenvalues --    0.10574   0.10605   0.11397   0.12125   0.12967

 Mulliken charges:
               1
     1  C    0.323085
     2  C   -0.014822
     3  C    0.012805
     4  O   -0.520012
     5  C    0.323085
     6  C    0.012805
     7  O   -0.520012
     8  C   -0.014822
     9  C    0.178367
    10  C    0.002455
    11  C    0.178367
    12  C    0.002455
    13  C   -0.013210
    14  C   -0.013210
    15  C   -0.013714
    16  C   -0.013714
    17  O   -0.346290
    18  H    0.056507
    19  O   -0.346291
    20  H    0.056507
    21  H    0.051844
    22  H    0.051845
    23  H    0.040249
    24  H    0.040249
    25  H    0.242736
    26  H    0.242736
 Sum of Mulliken charges =   0.00000

 Dipole moment (field-independent basis, Debye):
    X=             -3.1729    Y=              0.0000    Z=              0.0000  Tot=              3.1729
 N-N= 4.736428740093D+02 E-N= 0.000000000000D+00  KE=-1.141742426155D+03
 1\1\GINC-GTX1080ALPHA\SP\RZINDO\STO-3G\C14H8O4\Z485411\07-Apr-2020\0\\
 # zindo(Nstate=10)\\title\\0,1\C,0,0.037245,0.000655,-0.025892\C,0,0.0
 1692,-0.000093,1.446454\C,0,1.34281,0.000242,-0.71285\O,0,-1.010702,0.
 00158,-0.698959\C,0,2.533521,-0.001505,1.488996\C,0,2.540113,-0.00078,
 0.013743\O,0,3.614387,-0.002399,2.107819\C,0,1.236875,-0.001075,2.1867
 93\C,0,-1.200449,0.000183,2.138644\C,0,3.765058,-0.001136,-0.665132\C,
 0,1.184924,-0.001659,3.586227\C,0,1.379454,0.000897,-2.112857\C,0,-1.2
 32842,-0.000455,3.563463\C,0,-0.063991,-0.001343,4.27279\C,0,2.602784,
 0.000536,-2.782802\C,0,3.794525,-0.000479,-2.059583\O,0,-2.453124,0.00

 Normal termination of Gaussian 09 at Tue Apr  7 14:43:39 2020.
