 Gaussian 09, Revision D.01,
 Gaussian 09:  AM64L-G09RevD.01 24-Apr-2013

 ------------------
 # zindo(NState=10)
 ------------------

 -----
 title
 -----
 Symbolic Z-matrix:
 Charge =  0 Multiplicity = 1

                         Standard orientation:
 ---------------------------------------------------------------------
 Center     Atomic      Atomic             Coordinates (Angstroms)
 Number     Number       Type             X           Y           Z
 ---------------------------------------------------------------------
      1          6           0        0.000005    1.478416   -0.000831
      2          6           0       -1.275324    0.704448    0.000016
      3          6           0        1.275295    0.704348   -0.000295
      4          8           0        0.000053    2.704795    0.000508
      5          6           0       -0.000032   -1.478363    0.000191
      6          6           0        1.275279   -0.704429   -0.000258
      7          8           0       -0.000009   -2.704770   -0.000544
      8          6           0       -1.275315   -0.704426    0.000045
      9          6           0       -2.490745    1.398589   -0.000017
     10          6           0        2.490784   -1.398573    0.000079
     11          6           0       -2.490747   -1.398529    0.000199
     12          6           0        2.490690    1.398522   -0.000143
     13          6           0       -3.695190    0.699960    0.000030
     14          6           0       -3.695159   -0.700042    0.000216
     15          6           0        3.695181    0.700025    0.000244
     16          6           0        3.695217   -0.699969    0.000332
     17          1           0       -2.464187    2.483369   -0.000590
     18          1           0        2.464227   -2.483353    0.000652
     19          1           0       -2.463921   -2.483341    0.000795
     20          1           0        2.463864    2.483334   -0.000738
     21          1           0       -4.636201    1.243116   -0.000108
     22          1           0       -4.636178   -1.243208    0.000577
     23          1           0        4.636192    1.243173    0.000083
     24          1           0        4.636214   -1.243151    0.000768
 ---------------------------------------------------------------------

 SCF Done:  E(RZINDO/S) =  -107.888160005     A.U. after   13 cycles

 Excitation energies and oscillator strengths:

 Excited State   1:      Singlet-A      2.6742 eV  463.62 nm  f=0.0000  <S**2>=0.000
      33 -> 40        -0.28301
      33 -> 43         0.22921
      34 -> 39         0.57018
      34 -> 44        -0.16654
 This state for optimization and/or second-order correction.
 Total Energy, E(CIS) =  -107.789883456
 Copying the excited state density for this state as the 1-particle RhoCI density.

 Excited State   2:      Singlet-A      2.7269 eV  454.67 nm  f=0.0000  <S**2>=0.000
      33 -> 39         0.55865
      33 -> 44        -0.17457
      34 -> 40        -0.29704
      34 -> 43         0.23333

 Excited State   3:      Singlet-A      3.9237 eV  315.99 nm  f=0.0000  <S**2>=0.000
      35 -> 41         0.11134
      37 -> 40         0.10070
      38 -> 39         0.67847

 Excited State   4:      Singlet-A      4.0892 eV  303.20 nm  f=0.2225  <S**2>=0.000
      35 -> 42         0.16001
      36 -> 41        -0.21458
      37 -> 39         0.60889
      38 -> 40        -0.21154

 Excited State   5:      Singlet-A      4.1779 eV  296.76 nm  f=0.0000  <S**2>=0.000
      35 -> 40         0.17495
      36 -> 39         0.59727
      37 -> 41        -0.22233
      38 -> 42        -0.22005

 Excited State   6:      Singlet-A      4.6057 eV  269.20 nm  f=0.3961  <S**2>=0.000
      35 -> 39         0.63457
      36 -> 40        -0.20976
      37 -> 42        -0.15455
      38 -> 41         0.10752

 Excited State   7:      Singlet-A      5.1390 eV  241.26 nm  f=1.0646  <S**2>=0.000
      35 -> 42        -0.26035
      36 -> 41         0.14663
      37 -> 39         0.31475
      37 -> 44        -0.13526
      38 -> 40         0.53034

 Excited State   8:      Singlet-A      5.2236 eV  237.35 nm  f=0.0000  <S**2>=0.000
      35 -> 40         0.43593
      36 -> 39        -0.33892
      36 -> 44         0.17694
      37 -> 41        -0.23766
      38 -> 42        -0.30742

 Excited State   9:      Singlet-A      5.4665 eV  226.81 nm  f=0.0000  <S**2>=0.000
      35 -> 41         0.20151
      36 -> 42         0.33818
      37 -> 40         0.54134
      38 -> 39        -0.13437
      38 -> 44         0.11750

 Excited State  10:      Singlet-A      5.5276 eV  224.30 nm  f=0.3077  <S**2>=0.000
      35 -> 39         0.27885
      35 -> 44        -0.10171
      36 -> 40         0.46193
      37 -> 42         0.29554
      38 -> 41        -0.30642

 The electronic state is 1-A.
 Alpha  occ. eigenvalues --   -1.71374  -1.61897  -1.60031  -1.53498  -1.35815
 Alpha  occ. eigenvalues --   -1.26226  -1.21117  -1.20390  -1.04985  -0.99382
 Alpha  occ. eigenvalues --   -0.99341  -0.93727  -0.89555  -0.86335  -0.76107
 Alpha  occ. eigenvalues --   -0.69463  -0.66391  -0.65993  -0.65353  -0.59725
 Alpha  occ. eigenvalues --   -0.59494  -0.58268  -0.57690  -0.55881  -0.55612
 Alpha  occ. eigenvalues --   -0.51149  -0.50869  -0.49908  -0.48044  -0.46630
 Alpha  occ. eigenvalues --   -0.46357  -0.45888  -0.37453  -0.36589  -0.35360
 Alpha  occ. eigenvalues --   -0.35147  -0.34981  -0.34545
 Alpha virt. eigenvalues --   -0.05964  -0.01287   0.00412   0.01125   0.05100
 Alpha virt. eigenvalues --    0.05210   0.06269   0.09211   0.09279   0.09618
 Alpha virt. eigenvalues --    0.10981   0.11074   0.11771   0.13174   0.13505

 Mulliken charges:
               1
     1  C    0.320578
     2  C    0.009450
     3  C    0.009459
     4  O   -0.501731
     5  C    0.320584
     6  C    0.009458
     7  O   -0.501760
     8  C    0.009446
     9  C    0.000244
    10  C    0.000239
    11  C    0.000267
    12  C    0.000239
    13  C   -0.016393
    14  C   -0.016381
    15  C   -0.016384
    16  C   -0.016396
    17  H    0.056652
    18  H    0.056649
    19  H    0.056641
    20  H    0.056646
    21  H    0.040622
    22  H    0.040621
    23  H    0.040625
    24  H    0.040622
 Sum of Mulliken charges =  -0.00000

 Dipole moment (field-independent basis, Debye):
    X=             -0.0004    Y=              0.0004    Z=             -0.0009  Tot=              0.0011
 N-N= 3.614378849194D+02 E-N= 0.000000000000D+00  KE=-8.793206488593D+02
 1\1\GINC-GTX1080ALPHA\SP\RZINDO\STO-3G\C14H8O2\Z485411\07-Apr-2020\0\\
 # zindo(NState=10)\\title\\0,1\C,0,-0.6696,-1.2662,0.1053\C,0,-2.0876,
 -0.8192,-0.017\C,0,0.3876,-0.2137,0.0944\O,0,-0.3836,-2.4543,0.2084\C,
 0,-1.3588,1.598,-0.1475\C,0,0.0592,1.151,-0.0256\O,0,-1.6447,2.7861,-0
 .2512\C,0,-2.416,0.5456,-0.137\C,0,-3.1053,-1.7801,-0.0108\C,0,1.077,2
 .1119,-0.0321\C,0,-3.7573,0.9295,-0.2492\C,0,1.7289,-0.5977,0.2063\C,0
 ,-4.437,-1.3892,-0.1228\C,0,-4.7633,-0.033,-0.2422\C,0,2.735,0.3648,0.
 1989\C,0,2.4087,1.721,0.0796\H,0,-2.8267,-2.8246,0.0833\H,0,0.7984,3.1
 564,-0.1262\H,0,-3.9841,1.9867,-0.341\H,0,1.9557,-1.6549,0.2981\H,0,-5

 Normal termination of Gaussian 09 at Tue Apr  7 14:39:48 2020.
