 Gaussian 09, Revision D.01,
 Gaussian 09:  AM64L-G09RevD.01 24-Apr-2013

 ------------------
 # zindo(Nstate=10)
 ------------------

 -----
 title
 -----
 Symbolic Z-matrix:
 Charge =  0 Multiplicity = 1

                         Standard orientation:
 ---------------------------------------------------------------------
 Center     Atomic      Atomic             Coordinates (Angstroms)
 Number     Number       Type             X           Y           Z
 ---------------------------------------------------------------------
      1          6           0       -0.333627   -1.474263    0.000125
      2          6           0        0.928066   -0.703309   -0.000003
      3          6           0       -1.594287   -0.701069    0.000012
      4          8           0       -0.343901   -2.711826   -0.000079
      5          6           0       -0.333626    1.474263   -0.000199
      6          6           0       -1.594286    0.701069   -0.000040
      7          8           0       -0.343900    2.711827    0.000053
      8          6           0        0.928066    0.703309   -0.000028
      9          6           0        2.158496   -1.390004   -0.000012
     10          6           0       -2.811341    1.394126   -0.000030
     11          6           0        2.158496    1.390004    0.000020
     12          6           0       -2.811341   -1.394126    0.000043
     13          6           0        3.380543   -0.691358    0.000005
     14          6           0        3.380543    0.691358    0.000036
     15          6           0       -4.018892   -0.697018    0.000043
     16          6           0       -4.018891    0.697019    0.000010
     17          8           0        2.113897   -2.761538   -0.000034
     18          1           0       -2.799104    2.496876   -0.000088
     19          8           0        2.113897    2.761537    0.000050
     20          1           0       -2.799105   -2.496875    0.000098
     21          1           0        4.329548   -1.248224    0.000013
     22          1           0        4.329547    1.248224    0.000055
     23          1           0       -4.970251   -1.249985    0.000077
     24          1           0       -4.970252    1.249985    0.000008
     25          1           0        3.026089   -3.090519    0.000127
     26          1           0        3.026090    3.090519   -0.000100
 ---------------------------------------------------------------------

 SCF Done:  E(RZINDO/S) =  -132.232046049     A.U. after   14 cycles

 Excitation energies and oscillator strengths:

 Excited State   1:      Singlet-A      2.5480 eV  486.60 nm  f=0.0000  <S**2>=0.000
      39 -> 46         0.28182
      39 -> 50        -0.22916
      40 -> 45         0.56774
      40 -> 49        -0.16249
 This state for optimization and/or second-order correction.
 Total Energy, E(CIS) =  -132.138409501
 Copying the excited state density for this state as the 1-particle RhoCI density.

 Excited State   2:      Singlet-A      2.5701 eV  482.42 nm  f=0.0000  <S**2>=0.000
      39 -> 45         0.56352
      39 -> 49        -0.17039
      40 -> 46         0.28675
      40 -> 50        -0.22750

 Excited State   3:      Singlet-A      3.4070 eV  363.91 nm  f=0.2764  <S**2>=0.000
      44 -> 45         0.66156
      44 -> 47         0.16839

 Excited State   4:      Singlet-A      3.9671 eV  312.53 nm  f=0.0127  <S**2>=0.000
      41 -> 45        -0.29901
      42 -> 45         0.58616
      44 -> 46        -0.16128

 Excited State   5:      Singlet-A      4.0900 eV  303.14 nm  f=0.0839  <S**2>=0.000
      42 -> 46        -0.15977
      42 -> 48        -0.19453
      43 -> 45         0.60689
      43 -> 47        -0.22106

 Excited State   6:      Singlet-A      4.4194 eV  280.55 nm  f=0.0385  <S**2>=0.000
      41 -> 45         0.34891
      42 -> 45         0.29788
      43 -> 46         0.11948
      44 -> 46         0.42194
      44 -> 48        -0.25286

 Excited State   7:      Singlet-A      4.8679 eV  254.70 nm  f=0.0450  <S**2>=0.000
      41 -> 46        -0.29481
      41 -> 48         0.17491
      44 -> 45        -0.21181
      44 -> 47         0.50506
      44 -> 49         0.23933

 Excited State   8:      Singlet-A      4.9599 eV  249.97 nm  f=0.6021  <S**2>=0.000
      41 -> 45         0.48518
      43 -> 46         0.12176
      43 -> 48         0.12885
      44 -> 46        -0.42031
      44 -> 48         0.16353

 Excited State   9:      Singlet-A      5.1326 eV  241.56 nm  f=0.5402  <S**2>=0.000
      42 -> 46         0.46933
      42 -> 48         0.30257
      43 -> 45         0.31210
      43 -> 47         0.19738
      43 -> 49        -0.16795

 Excited State  10:      Singlet-A      5.4445 eV  227.72 nm  f=0.2575  <S**2>=0.000
      41 -> 45        -0.16716
      42 -> 45        -0.19443
      42 -> 47        -0.25526
      42 -> 49         0.10980
      43 -> 46         0.46943
      43 -> 48         0.33404

 The electronic state is 1-A.
 Alpha  occ. eigenvalues --   -1.74366  -1.66543  -1.65561  -1.55137  -1.53470
 Alpha  occ. eigenvalues --   -1.50244  -1.34972  -1.22673  -1.22077  -1.08607
 Alpha  occ. eigenvalues --   -1.05375  -1.00124  -0.98920  -0.91525  -0.87276
 Alpha  occ. eigenvalues --   -0.84613  -0.79323  -0.71703  -0.69531  -0.67737
 Alpha  occ. eigenvalues --   -0.66613  -0.63468  -0.60119  -0.59869  -0.59368
 Alpha  occ. eigenvalues --   -0.57418  -0.55768  -0.55362  -0.53987  -0.52988
 Alpha  occ. eigenvalues --   -0.52019  -0.49527  -0.49406  -0.48449  -0.47092
 Alpha  occ. eigenvalues --   -0.46537  -0.46523  -0.43499  -0.36454  -0.35856
 Alpha  occ. eigenvalues --   -0.35832  -0.34638  -0.34638  -0.31794
 Alpha virt. eigenvalues --   -0.06039  -0.01209   0.00275   0.01108   0.05157
 Alpha virt. eigenvalues --    0.05294   0.05931   0.08620   0.09000   0.09521
 Alpha virt. eigenvalues --    0.10656   0.11178   0.11822   0.12236   0.13496

 Mulliken charges:
               1
     1  C    0.322427
     2  C    0.004715
     3  C    0.011170
     4  O   -0.496465
     5  C    0.322427
     6  C    0.011170
     7  O   -0.496465
     8  C    0.004715
     9  C    0.161267
    10  C    0.000416
    11  C    0.161267
    12  C    0.000416
    13  C   -0.028174
    14  C   -0.028174
    15  C   -0.016042
    16  C   -0.016042
    17  O   -0.313708
    18  H    0.055724
    19  O   -0.313707
    20  H    0.055724
    21  H    0.043168
    22  H    0.043168
    23  H    0.038875
    24  H    0.038875
    25  H    0.216629
    26  H    0.216628
 Sum of Mulliken charges =  -0.00000

 Dipole moment (field-independent basis, Debye):
    X=              4.0109    Y=             -0.0000    Z=             -0.0000  Tot=              4.0109
 N-N= 4.738759171166D+02 E-N= 0.000000000000D+00  KE=-1.142475921032D+03
 1\1\GINC-GTX1080ALPHA\SP\RZINDO\STO-3G\C14H8O4\Z485411\07-Apr-2020\0\\
 # zindo(Nstate=10)\\title\\0,1\C,0,0.00629,0.000733,-0.002367\C,0,0.01
 0811,-0.000094,1.47622\C,0,1.321319,0.000228,-0.678969\O,0,-1.046368,0
 .001403,-0.653196\C,0,2.526974,-0.001672,1.527324\C,0,2.520002,-0.0008
 13,0.048459\O,0,3.590293,-0.002291,2.160587\C,0,1.213324,-0.001111,2.2
 05971\C,0,-1.214587,0.000231,2.171854\C,0,3.7439,-0.001143,-0.63244\C,
 0,1.162032,-0.001698,3.614117\C,0,1.360233,0.000897,-2.078981\C,0,-1.2
 51313,-0.000394,3.579034\C,0,-0.069234,-0.001339,4.296385\C,0,2.582664
 ,0.000553,-2.749654\C,0,3.774421,-0.000463,-2.026429\O,0,-2.363968,0.0

 Normal termination of Gaussian 09 at Tue Apr  7 14:42:21 2020.
