 Gaussian 09, Revision D.01,
 Gaussian 09:  AM64L-G09RevD.01 24-Apr-2013

 ------------------
 # zindo(NState=10)
 ------------------

 -----
 titre
 -----
 Symbolic Z-matrix:
 Charge =  0 Multiplicity = 1

                         Standard orientation:
 ---------------------------------------------------------------------
 Center     Atomic      Atomic             Coordinates (Angstroms)
 Number     Number       Type             X           Y           Z
 ---------------------------------------------------------------------
      1          8           0        2.670114   -0.000056    0.000013
      2          6           0        1.445173    0.000024    0.000092
      3          6           0        0.671570    1.269341   -0.000047
      4          6           0        0.671576   -1.269206   -0.000089
      5          6           0       -0.671526    1.269239    0.000059
      6          6           0       -0.671519   -1.269308    0.000017
      7          6           0       -1.445211   -0.000036   -0.000131
      8          8           0       -2.670147    0.000015    0.000043
      9          1           0        1.259736    2.182787   -0.000134
     10          1           0        1.259685   -2.182721    0.000027
     11          1           0       -1.259764    2.182764    0.000058
     12          1           0       -1.259769   -2.182828    0.000190
 ---------------------------------------------------------------------

 SCF Done:  E(RZINDO/S) =  -60.1505526161     A.U. after   11 cycles

 Excitation energies and oscillator strengths:

 Excited State   1:      Singlet-A      2.4110 eV  514.25 nm  f=0.0000  <S**2>=0.000
      18 -> 23        -0.29271
      20 -> 21         0.62887
      20 -> 25        -0.11808
 This state for optimization and/or second-order correction.
 Total Energy, E(CIS) =  -60.0619511659
 Copying the excited state density for this state as the 1-particle RhoCI density.

 Excited State   2:      Singlet-A      2.4459 eV  506.90 nm  f=0.0000  <S**2>=0.000
      18 -> 21         0.62422
      18 -> 25        -0.13027
      20 -> 23        -0.29751

 Excited State   3:      Singlet-A      4.0403 eV  306.87 nm  f=0.0000  <S**2>=0.000
      17 -> 21         0.70021

 Excited State   4:      Singlet-A      4.9218 eV  251.91 nm  f=0.8824  <S**2>=0.000
      17 -> 22        -0.11746
      19 -> 21         0.68574

 Excited State   5:      Singlet-A      5.7852 eV  214.31 nm  f=0.0000  <S**2>=0.000
      15 -> 21         0.28672
      18 -> 23         0.47713
      20 -> 21         0.30139
      20 -> 25         0.30560

 Excited State   6:      Singlet-A      6.0481 eV  205.00 nm  f=0.0032  <S**2>=0.000
      15 -> 22         0.12781
      20 -> 22         0.68549

 Excited State   7:      Singlet-A      6.0772 eV  204.01 nm  f=0.0000  <S**2>=0.000
      18 -> 21         0.32123
      18 -> 25         0.29100
      20 -> 23         0.55105

 Excited State   8:      Singlet-A      6.3726 eV  194.56 nm  f=0.0000  <S**2>=0.000
      14 -> 21         0.27384
      18 -> 22         0.64282

 Excited State   9:      Singlet-A      6.4236 eV  193.01 nm  f=0.0000  <S**2>=0.000
      18 -> 24         0.12366
      19 -> 22         0.66296
      20 -> 26         0.15608

 Excited State  10:      Singlet-A      6.6969 eV  185.14 nm  f=0.0972  <S**2>=0.000
      17 -> 23         0.64136
      18 -> 26         0.15985
      20 -> 24         0.24242

 The electronic state is 1-A.
 Alpha  occ. eigenvalues --   -1.66635  -1.58909  -1.44148  -1.26991  -1.00096
 Alpha  occ. eigenvalues --   -0.98935  -0.93259  -0.74384  -0.70769  -0.65052
 Alpha  occ. eigenvalues --   -0.61687  -0.57909  -0.56702  -0.53731  -0.53578
 Alpha  occ. eigenvalues --   -0.50549  -0.39462  -0.39214  -0.38741  -0.38643
 Alpha virt. eigenvalues --   -0.08403   0.00544   0.02243   0.05957   0.07760
 Alpha virt. eigenvalues --    0.09250   0.10261   0.17487   0.18456   0.20593
 Alpha virt. eigenvalues --    0.29204   0.32363   0.34628   0.40400   0.43000

 Mulliken charges:
               1
     1  O   -0.461834
     2  C    0.324551
     3  C    0.006320
     4  C    0.006335
     5  C    0.006326
     6  C    0.006322
     7  C    0.324545
     8  O   -0.461816
     9  H    0.062329
    10  H    0.062308
    11  H    0.062299
    12  H    0.062314
 Sum of Mulliken charges =  -0.00000

 Dipole moment (field-independent basis, Debye):
    X=             -0.0001    Y=              0.0001    Z=             -0.0001  Tot=              0.0002
 N-N= 1.138014484242D+02 E-N= 0.000000000000D+00  KE=-3.161161365591D+02
 1\1\GINC-GTX1080ALPHA\SP\RZINDO\STO-3G\C6H4O2\Z485411\05-Apr-2020\0\\#
  zindo(NState=10)\\titre\\0,1\O,0,-0.0063,0.8427,1.2033\C,0,1.0814,0.7
 849,1.7637\C,0,1.1975,0.3718,3.1869\C,0,2.3392,1.1246,1.0482\C,0,2.390
 2,0.3085,3.8012\C,0,3.5319,1.0613,1.6625\C,0,3.6481,0.6482,3.0857\O,0,
 4.7358,0.5905,3.6461\H,0,0.2644,0.1286,3.6874\H,0,2.2278,1.4234,0.0096
 \H,0,2.5017,0.0098,4.8399\H,0,4.4651,1.3046,1.162\\Version=AM64L-G09Re
 vD.01\State=1-A\HF=-60.1505526\RMSD=9.058e-09\PG=C01 [X(C6H4O2)]\\@

 Normal termination of Gaussian 09 at Sun Apr  5 08:08:10 2020.
