 Gaussian 09, Revision D.01,
 Gaussian 09:  AM64L-G09RevD.01 24-Apr-2013

 -----------------------
 #n AM1 Opt=modredundant
 -----------------------

 -------------------------
 Optimisation de geometrie
 -------------------------
 Symbolic Z-matrix:
 Charge =  0 Multiplicity = 1

 SCF Done:  E(RAM1) =  0.778244748755E-01 A.U. after   13 cycles
 SCF Done:  E(RAM1) =  0.760978334159E-01 A.U. after   12 cycles
 SCF Done:  E(RAM1) =  0.756594946496E-01 A.U. after   11 cycles
 SCF Done:  E(RAM1) =  0.756203570064E-01 A.U. after   11 cycles
 SCF Done:  E(RAM1) =  0.756188269991E-01 A.U. after   11 cycles
 Optimization completed.
    -- Stationary point found.
 SCF Done:  E(RAM1) =  0.759704164042E-01 A.U. after   13 cycles
 SCF Done:  E(RAM1) =  0.757618446700E-01 A.U. after   11 cycles
 SCF Done:  E(RAM1) =  0.757494716830E-01 A.U. after   11 cycles
 SCF Done:  E(RAM1) =  0.757489543289E-01 A.U. after   10 cycles
 Optimization completed.
 SCF Done:  E(RAM1) =  0.765246401305E-01 A.U. after   13 cycles
 SCF Done:  E(RAM1) =  0.772008068337E-01 A.U. after   13 cycles
 SCF Done:  E(RAM1) =  0.771533473748E-01 A.U. after   12 cycles
 SCF Done:  E(RAM1) =  0.771525557175E-01 A.U. after   10 cycles
 SCF Done:  E(RAM1) =  0.763643713900E-01 A.U. after   13 cycles
 SCF Done:  E(RAM1) =  0.760885810162E-01 A.U. after   13 cycles
 SCF Done:  E(RAM1) =  0.760868047481E-01 A.U. after   11 cycles
    -- Stationary point found.
 SCF Done:  E(RAM1) =  0.758363431702E-01 A.U. after   13 cycles
 SCF Done:  E(RAM1) =  0.756207210611E-01 A.U. after   12 cycles
 SCF Done:  E(RAM1) =  0.756188691802E-01 A.U. after   10 cycles
 SCF Done:  E(RAM1) =  0.756186534238E-01 A.U. after   10 cycles
 Optimization completed.
    -- Stationary point found.

                         Standard orientation:
 ---------------------------------------------------------------------
 Center     Atomic      Atomic             Coordinates (Angstroms)
 Number     Number       Type             X           Y           Z
 ---------------------------------------------------------------------
      1          6           0        2.834640    1.139050    0.399022
      2          6           0        1.441321    1.140898    0.398882
      3          6           0        0.730895   -0.001282    0.001656
      4          6           0        1.442715   -1.141708   -0.398436
      5          6           0        2.835932   -1.138142   -0.398870
      6          6           0        3.535009    0.000882    0.000139
      7          6           0       -0.730874   -0.001165   -0.001919
      8          6           0       -1.442530   -1.141681    0.398263
      9          6           0       -2.835779   -1.138225    0.399006
     10          6           0       -3.534983    0.000695    0.000117
     11          6           0       -2.834806    1.138921   -0.398909
     12          6           0       -1.441524    1.140974   -0.399032
     13          1           0       -0.894388    2.039682   -0.721340
     14          1           0        3.382264    2.038805    0.715924
     15          1           0        0.893957    2.039498    0.721111
     16          1           0        0.896205   -2.040488   -0.721587
     17          1           0        3.384779   -2.036816   -0.716721
     18          1           0        4.634574    0.001494   -0.000114
     19          1           0       -0.895848   -2.040402    0.721339
     20          1           0       -3.384428   -2.036962    0.716999
     21          1           0       -4.634535    0.001324    0.000546
     22          1           0       -3.382682    2.038563   -0.715665
 ---------------------------------------------------------------------

 The electronic state is 1-A.
 Alpha  occ. eigenvalues --   -1.47863  -1.41736  -1.23018  -1.16976  -1.14374
 Alpha  occ. eigenvalues --   -1.08395  -0.89275  -0.87901  -0.82240  -0.79356
 Alpha  occ. eigenvalues --   -0.67261  -0.62265  -0.61077  -0.58872  -0.55932
 Alpha  occ. eigenvalues --   -0.55632  -0.52788  -0.52199  -0.51768  -0.50243
 Alpha  occ. eigenvalues --   -0.48107  -0.46024  -0.44634  -0.43483  -0.42982
 Alpha  occ. eigenvalues --   -0.37881  -0.35716  -0.35643  -0.32839
 Alpha virt. eigenvalues --   -0.00306   0.01901   0.01970   0.03417   0.10128
 Alpha virt. eigenvalues --    0.11286   0.13707   0.14288   0.14635   0.14712
 Alpha virt. eigenvalues --    0.14984   0.15015   0.15219   0.16279   0.16350

 Mulliken charges:
               1
     1  C   -0.130657
     2  C   -0.119004
     3  C   -0.036806
     4  C   -0.118957
     5  C   -0.130667
     6  C   -0.127542
     7  C   -0.036809
     8  C   -0.118982
     9  C   -0.130659
    10  C   -0.127541
    11  C   -0.130665
    12  C   -0.118979
    13  H    0.134450
    14  H    0.131654
    15  H    0.134450
    16  H    0.134449
    17  H    0.131656
    18  H    0.131431
    19  H    0.134453
    20  H    0.131654
    21  H    0.131425
    22  H    0.131649
 Sum of Mulliken charges =  -0.00000

 Dipole moment (field-independent basis, Debye):
    X=              0.0001    Y=              0.0018    Z=              0.0002  Tot=              0.0018
 N-N= 3.264109667361D+02 E-N=-5.738863177453D+02  KE=-3.825474791935D+01
 1\1\GINC-GTX1080DELTA\Scan\RAM1\ZDO\C12H10\MVEROT\18-Apr-2022\0\\#n AM
 1 Opt=modredundant\\Optimisation de geometrie\\0,1\C,-3.0621950541,1.0
 946703163,-0.821775675\C,-1.6749897737,1.2243133938,-0.8078042589\C,-0
 .8953069095,0.4108955016,0.0273701009\C,-1.5320607459,-0.5303272206,0.
 8495484823\C,-2.9196220186,-0.6548020166,0.8338988262\C,-3.6876694352,
 0.1560651431,-0.0015004876\C,0.5600327948,0.5466367191,0.0459001693\C,
 1.3782053049,-0.5876875284,0.1521011427\C,2.7652544969,-0.4569452291,0
 .1646108081\C,3.3520946953,0.8049184463,0.0726572433\C,2.5455881046,1.
 9377454415,-0.0335466787\C,1.1580970281,1.8117613139,-0.0488654944\H,0

 Normal termination of Gaussian 09 at Mon Apr 18 01:00:37 2022.
