 Gaussian 09, Revision D.01,
 Gaussian 09:  AM64L-G09RevD.01 24-Apr-2013

 --------------------
 # hf/6-31G* opt freq
 --------------------

 -------------------------
 Optimisation de geometrie
 -------------------------
 Symbolic Z-matrix:
 Charge =  0 Multiplicity = 1

 SCF Done:  E(RHF) =  -156.095023051     A.U. after   11 cycles
 SCF Done:  E(RHF) =  -156.095919788     A.U. after    9 cycles
 SCF Done:  E(RHF) =  -156.095929692     A.U. after    8 cycles
 Optimization completed.
    -- Stationary point found.
 Normal termination of Gaussian 09 at Sat Apr 16 11:54:18 2022.

 -----------------------------------------------------------------
 #N Geom=AllCheck Guess=TCheck SCRF=Check GenChk RHF/6-31G(d) Freq
 -----------------------------------------------------------------

 Structure from the checkpoint file:  "Methylcyclopropane-opt.chk"
 -------------------------
 Optimisation de geometrie
 -------------------------
 Charge =  0 Multiplicity = 1

                         Standard orientation:
 ---------------------------------------------------------------------
 Center     Atomic      Atomic             Coordinates (Angstroms)
 Number     Number       Type             X           Y           Z
 ---------------------------------------------------------------------
      1          6           0        0.176898   -0.000018    0.495825
      2          6           0       -0.952667   -0.750280   -0.139682
      3          6           0       -0.952622    0.750299   -0.139663
      4          6           0        1.550397   -0.000011   -0.136262
      5          1           0        0.185405   -0.000028    1.573800
      6          1           0       -0.761652   -1.253648   -1.072146
      7          1           0       -1.655163   -1.259800    0.496466
      8          1           0       -1.655127    1.259890    0.496415
      9          1           0       -0.761470    1.253681   -1.072096
     10          1           0        1.480740    0.000026   -1.220034
     11          1           0        2.117633    0.878371    0.158169
     12          1           0        2.117603   -0.878431    0.158109
 ---------------------------------------------------------------------

 SCF Done:  E(RHF) =  -156.095929692     A.U. after    1 cycles

 The electronic state is 1-A.
 Alpha  occ. eigenvalues --  -11.22440 -11.21571 -11.21507 -11.21170  -1.14198
 Alpha  occ. eigenvalues --   -0.96046  -0.81803  -0.77556  -0.66468  -0.61398
 Alpha  occ. eigenvalues --   -0.56412  -0.54193  -0.50847  -0.49042  -0.40886
 Alpha  occ. eigenvalues --   -0.39931
 Alpha virt. eigenvalues --    0.24408   0.26133   0.28771   0.30813   0.31654
 Alpha virt. eigenvalues --    0.33028   0.33542   0.35087   0.38516   0.42387
 Alpha virt. eigenvalues --    0.43614   0.49121   0.67138   0.72069   0.73359

 Mulliken charges:
               1
     1  C   -0.162982
     2  C   -0.365477
     3  C   -0.365473
     4  C   -0.472861
     5  H    0.178351
     6  H    0.176148
     7  H    0.178164
     8  H    0.178164
     9  H    0.176142
    10  H    0.155299
    11  H    0.162262
    12  H    0.162263
 Sum of Mulliken charges =   0.00000

 Dipole moment (field-independent basis, Debye):
    X=              0.0667    Y=              0.0000    Z=              0.0795  Tot=              0.1037
 Quadrupole moment (field-independent basis, Debye-Ang):
   XX=            -27.1109   YY=            -27.0680   ZZ=            -25.6906
   XY=              0.0001   XZ=             -0.6854   YZ=              0.0000

  Exact polarizability:  41.830   0.000  38.606   0.110  -0.000  36.559
 Approx polarizability:  33.451   0.000  33.889   0.180  -0.000  33.483

                      1                      2                      3
                      A                      A                      A
 Frequencies --    233.6782               367.8909               390.9766
 Red. masses --      1.0668                 1.9982                 2.1496
 Frc consts  --      0.0343                 0.1593                 0.1936
 IR Inten    --      0.0012                 0.5306                 0.1892
 Raman Activ --      0.0824                 0.3341                 0.8586

                      4                      5                      6
                      A                      A                      A
 Frequencies --    830.8005               860.2986               896.6892
 Red. masses --      1.8059                 1.2583                 1.1163
 Frc consts  --      0.7344                 0.5487                 0.5288
 IR Inten    --      5.3953                 3.3496                 5.8893
 Raman Activ --     15.4404                 3.7192                 2.6996

                      7                      8                      9
                      A                      A                      A
 Frequencies --    949.8544              1023.8555              1074.7586
 Red. masses --      2.7730                 1.2776                 1.8937
 Frc consts  --      1.4740                 0.7891                 1.2888
 IR Inten    --     11.2264                 4.1345                 9.3463
 Raman Activ --     18.2327                 3.9897                13.0191

                     10                     11                     12
                      A                      A                      A
 Frequencies --   1189.4484              1209.2018              1215.9922
 Red. masses --      1.4449                 1.4119                 1.3280
 Frc consts  --      1.2044                 1.2164                 1.1569
 IR Inten    --      3.1487                 0.3207                 4.2779
 Raman Activ --      1.3640                 0.4531                 1.2247

                     13                     14                     15
                      A                      A                      A
 Frequencies --   1271.4303              1307.4464              1317.4197
 Red. masses --      1.2811                 1.6768                 1.4083
 Frc consts  --      1.2202                 1.6888                 1.4401
 IR Inten    --      0.5445                 0.1126                 0.2410
 Raman Activ --      0.4248                13.5502                 8.7150

                     16                     17                     18
                      A                      A                      A
 Frequencies --   1340.0989              1528.8424              1578.7556
 Red. masses --      1.8767                 1.3537                 1.4043
 Frc consts  --      1.9857                 1.8642                 2.0623
 IR Inten    --      0.0785                 3.6810                 2.1158
 Raman Activ --     14.5297                 3.1847                 4.0681

                     19                     20                     21
                      A                      A                      A
 Frequencies --   1613.8669              1637.2161              1645.0140
 Red. masses --      1.0901                 1.0478                 1.0459
 Frc consts  --      1.6728                 1.6548                 1.6675
 IR Inten    --      0.5326                 1.0741                 5.2956
 Raman Activ --      8.5706                14.9525                18.2681

                     22                     23                     24
                      A                      A                      A
 Frequencies --   1672.3160              3195.3051              3253.7772
 Red. masses --      1.4173                 1.0358                 1.1034
 Frc consts  --      2.3354                 6.2312                 6.8827
 IR Inten    --      0.6932                42.5133                47.4229
 Raman Activ --      3.5641               109.5986                89.4647

                     25                     26                     27
                      A                      A                      A
 Frequencies --   3255.1147              3299.8300              3307.3608
 Red. masses --      1.1023                 1.0518                 1.0640
 Frc consts  --      6.8812                 6.7476                 6.8573
 IR Inten    --     31.7162                35.9759                31.6267
 Raman Activ --     72.5501                22.8085                80.0517

                     28                     29                     30
                      A                      A                      A
 Frequencies --   3316.6170              3373.7989              3389.8492
 Red. masses --      1.0878                 1.1198                 1.1158
 Frc consts  --      7.0499                 7.5100                 7.5546
 IR Inten    --     15.3254                 0.3659                45.9334
 Raman Activ --    160.9949                92.9536                35.2051

 - Thermochemistry -
 -------------------
 Temperature   298.150 Kelvin.  Pressure   1.00000 Atm.
 Atom     1 has atomic number  6 and mass  12.00000

 Molecular mass:    56.06260 amu.
 Principal axes and moments of inertia in atomic units:
                           1         2         3
     Eigenvalues --   113.98034 283.73030 322.82629
           X            0.99989   0.00000  -0.01467
           Y           -0.00000   1.00000  -0.00000
           Z            0.01467   0.00000   0.99989
 This molecule is an asymmetric top.
 Rotational symmetry number  1.
 Rotational temperatures (Kelvin)      0.75990     0.30527     0.26830
 Rotational constants (GHZ):          15.83379     6.36076     5.59044
 Zero-point vibrational energy     308322.5 (Joules/Mol)
                                   73.69086 (Kcal/Mol)
 Warning -- explicit consideration of   3 degrees of freedom as
           vibrations may cause significant error
 Vibrational temperatures:    336.21   529.31   562.53  1195.34  1237.78
          (Kelvin)           1290.13  1366.63  1473.10  1546.34  1711.35
                             1739.77  1749.54  1829.30  1881.12  1895.47
                             1928.10  2199.66  2271.47  2321.99  2355.59
                             2366.81  2406.09  4597.33  4681.45  4683.38
                             4747.71  4758.55  4771.87  4854.14  4877.23

 Zero-point correction=                           0.117434 (Hartree/Particle)
 Thermal correction to Energy=                    0.121841
 Thermal correction to Enthalpy=                  0.122785
 Thermal correction to Gibbs Free Energy=         0.091038
 Sum of electronic and zero-point Energies=           -155.978496
 Sum of electronic and thermal Energies=              -155.974089
 Sum of electronic and thermal Enthalpies=            -155.973144
 Sum of electronic and thermal Free Energies=         -156.004892

                     E (Thermal)             CV                S
                      KCal/Mol        Cal/Mol-Kelvin    Cal/Mol-Kelvin
 Total                   76.456             15.019             66.818
 Electronic               0.000              0.000              0.000
 Translational            0.889              2.981             37.993
 Rotational               0.889              2.981             23.861
 Vibrational             74.679              9.057              4.965
 Vibration     1          0.654              1.789              1.851
 Vibration     2          0.740              1.538              1.089
 Vibration     3          0.759              1.489              0.996

 Normal termination of Gaussian 09 at Sat Apr 16 11:54:26 2022.
