 Gaussian 09, Revision D.01,
 Gaussian 09:  AM64L-G09RevD.01 24-Apr-2013

 ----------
 #n AM1 Opt
 ----------

 -------------------------
 Optimisation de geometrie
 -------------------------
 Symbolic Z-matrix:
 Charge =  0 Multiplicity = 1

 SCF Done:  E(RAM1) = -0.182111719359     A.U. after   13 cycles
 SCF Done:  E(RAM1) = -0.184001828555     A.U. after   12 cycles
 SCF Done:  E(RAM1) = -0.185057756599     A.U. after   12 cycles
 SCF Done:  E(RAM1) = -0.185803618700     A.U. after   11 cycles
 SCF Done:  E(RAM1) = -0.186415844113     A.U. after   12 cycles
 SCF Done:  E(RAM1) = -0.186594684699     A.U. after   11 cycles
 SCF Done:  E(RAM1) = -0.186610803753     A.U. after   10 cycles
 SCF Done:  E(RAM1) = -0.186616313527     A.U. after   10 cycles
 SCF Done:  E(RAM1) = -0.186620495075     A.U. after   10 cycles
 SCF Done:  E(RAM1) = -0.186621942080     A.U. after    9 cycles
 SCF Done:  E(RAM1) = -0.186623192459     A.U. after   10 cycles
 SCF Done:  E(RAM1) = -0.186623343897     A.U. after    9 cycles
 Optimization completed.
    -- Stationary point found.

                         Standard orientation:
 ---------------------------------------------------------------------
 Center     Atomic      Atomic             Coordinates (Angstroms)
 Number     Number       Type             X           Y           Z
 ---------------------------------------------------------------------
      1          6           0        1.282245    0.465966    0.196298
      2          8           0        1.359794   -0.922165   -0.094050
      3          6           0       -0.020921    0.985914   -0.384523
      4          6           0       -1.239509    0.415591    0.321215
      5          8           0       -1.571415   -0.880656   -0.130943
      6          1           0        2.154365    0.998522   -0.270498
      7          1           0        1.313395    0.623165    1.308461
      8          1           0        2.184370   -1.242504    0.288210
      9          1           0       -0.072013    0.722280   -1.473266
     10          1           0       -0.025111    2.101851   -0.288834
     11          1           0       -2.150006    1.033623    0.092971
     12          1           0       -1.074070    0.399084    1.432819
     13          1           0       -0.768848   -1.418284   -0.087857
 ---------------------------------------------------------------------

 The electronic state is 1-A.
 Alpha  occ. eigenvalues --   -1.43867  -1.36812  -1.19235  -0.96757  -0.81570
 Alpha  occ. eigenvalues --   -0.69247  -0.66137  -0.58042  -0.57564  -0.57114
 Alpha  occ. eigenvalues --   -0.51837  -0.48523  -0.46976  -0.43373  -0.41089
 Alpha  occ. eigenvalues --   -0.39558
 Alpha virt. eigenvalues --    0.11573   0.13073   0.13614   0.14139   0.15283
 Alpha virt. eigenvalues --    0.15670   0.15959   0.16841   0.17644   0.18065
 Alpha virt. eigenvalues --    0.21917   0.24852

 Mulliken charges:
               1
     1  C   -0.021844
     2  O   -0.341171
     3  C   -0.205077
     4  C   -0.010289
     5  O   -0.334093
     6  H    0.065037
     7  H    0.062884
     8  H    0.204547
     9  H    0.111937
    10  H    0.093524
    11  H    0.098864
    12  H    0.057978
    13  H    0.217703
 Sum of Mulliken charges =  -0.00000

 Dipole moment (field-independent basis, Debye):
    X=              2.4943    Y=              1.5912    Z=              1.1458  Tot=              3.1727
 N-N= 1.401789845709D+02 E-N=-2.367169441134D+02  KE=-2.086026118668D+01
 1\1\GINC-GTX1080DELTA\FOpt\RAM1\ZDO\C3H8O2\MVEROT\17-Apr-2022\0\\#n AM
 1 Opt\\Optimisation de geometrie\\0,1\C,0.9989701386,2.051977429,1.269
 1576378\O,1.5581046184,3.2116695589,0.6694041056\C,1.9972876813,0.9200
 268626,1.1018472013\C,3.2693132725,1.1448526804,1.9016565924\O,4.17109
 81895,2.0173181643,1.2532329124\H,0.0311059532,1.7934139948,0.76073647
 58\H,0.7970786827,2.2474361861,2.3571024434\H,0.9212685918,3.924594840
 3,0.7912343211\H,2.2609052677,0.8165238271,0.0168282269\H,1.5087809876
 ,-0.0292070179,1.4406755235\H,3.8396122541,0.1825522969,2.0102801034\H
 ,3.0223088311,1.5445155151,2.9227178804\H,3.6803655316,2.8137256626,1.

 Normal termination of Gaussian 09 at Sun Apr 17 23:11:06 2022.
