 Gaussian 09, Revision D.01,
 Gaussian 09:  AM64L-G09RevD.01 24-Apr-2013

 ----------------------------
 # hf/6-31G* Opt=modredundant
 ----------------------------

 -------------------------
 Optimisation de geometrie
 -------------------------
 Symbolic Z-matrix:
 Charge =  0 Multiplicity = 1

 SCF Done:  E(RHF) =  -306.992418846     A.U. after   12 cycles
 SCF Done:  E(RHF) =  -306.993616470     A.U. after   11 cycles
 SCF Done:  E(RHF) =  -306.989981369     A.U. after   13 cycles
 SCF Done:  E(RHF) =  -306.993613907     A.U. after   11 cycles
 SCF Done:  E(RHF) =  -306.994300588     A.U. after    9 cycles
 SCF Done:  E(RHF) =  -306.995424195     A.U. after   10 cycles
 SCF Done:  E(RHF) =  -306.995543009     A.U. after   10 cycles
 SCF Done:  E(RHF) =  -306.995582965     A.U. after   10 cycles
 SCF Done:  E(RHF) =  -306.995593232     A.U. after    9 cycles
 SCF Done:  E(RHF) =  -306.995595623     A.U. after    9 cycles
 Optimization completed.
    -- Stationary point found.
 Optimization completed.
 SCF Done:  E(RHF) =  -306.993282233     A.U. after   11 cycles
 SCF Done:  E(RHF) =  -306.995164365     A.U. after   10 cycles
 SCF Done:  E(RHF) =  -306.995225292     A.U. after    9 cycles
 SCF Done:  E(RHF) =  -306.995225959     A.U. after    8 cycles
    -- Stationary point found.
 SCF Done:  E(RHF) =  -306.993369314     A.U. after   11 cycles
 SCF Done:  E(RHF) =  -306.995260970     A.U. after   10 cycles
 SCF Done:  E(RHF) =  -306.995347991     A.U. after   10 cycles
 SCF Done:  E(RHF) =  -306.995349507     A.U. after    9 cycles
 SCF Done:  E(RHF) =  -306.995350023     A.U. after    8 cycles
 SCF Done:  E(RHF) =  -306.995350082     A.U. after    7 cycles
 Optimization completed.
    -- Stationary point found.

                         Standard orientation:
 ---------------------------------------------------------------------
 Center     Atomic      Atomic             Coordinates (Angstroms)
 Number     Number       Type             X           Y           Z
 ---------------------------------------------------------------------
      1          6           0        0.722812    1.184884    0.212549
      2          6           0        1.599471    0.071440   -0.352701
      3          8           0        1.341642   -1.193817    0.220414
      4          6           0       -0.756055    1.171012   -0.201635
      5          6           0       -1.613707    0.022772    0.333139
      6          8           0       -1.426502   -1.187767   -0.336654
      7          1           0        1.155011    2.129030   -0.112251
      8          1           0        0.801410    1.178172    1.299916
      9          1           0        2.647832    0.322095   -0.215545
     10          1           0        1.428255   -0.047141   -1.414318
     11          1           0        1.616907   -1.194961    1.127105
     12          1           0       -0.834515    1.176162   -1.285880
     13          1           0       -1.197908    2.102443    0.146887
     14          1           0       -2.657314    0.278905    0.198138
     15          1           0       -1.450929   -0.092086    1.405861
     16          1           0       -0.544993   -1.500603   -0.168107
 ---------------------------------------------------------------------

 The electronic state is 1-A.
 Alpha  occ. eigenvalues --  -20.57967 -20.52750 -11.28327 -11.25897 -11.22994
 Alpha  occ. eigenvalues --  -11.21798  -1.38415  -1.33964  -1.06920  -0.97061
 Alpha  occ. eigenvalues --   -0.87483  -0.80338  -0.70941  -0.67309  -0.64527
 Alpha  occ. eigenvalues --   -0.64200  -0.59501  -0.57979  -0.55873  -0.52298
 Alpha  occ. eigenvalues --   -0.50730  -0.48595  -0.45527  -0.44709  -0.41222
 Alpha virt. eigenvalues --    0.20416   0.24746   0.26807   0.28459   0.29556
 Alpha virt. eigenvalues --    0.31622   0.32157   0.32541   0.33690   0.36895
 Alpha virt. eigenvalues --    0.38664   0.40985   0.43439   0.47780   0.48322

 Mulliken charges:
               1
     1  C   -0.342662
     2  C   -0.008776
     3  O   -0.758373
     4  C   -0.338760
     5  C    0.023003
     6  O   -0.777879
     7  H    0.166089
     8  H    0.148553
     9  H    0.156714
    10  H    0.184569
    11  H    0.445032
    12  H    0.172770
    13  H    0.157108
    14  H    0.162769
    15  H    0.121926
    16  H    0.487917
 Sum of Mulliken charges =  -0.00000

 Dipole moment (field-independent basis, Debye):
    X=              2.4292    Y=              2.3227    Z=              1.7672  Tot=              3.7972
 Quadrupole moment (field-independent basis, Debye-Ang):
   XX=            -38.5183   YY=            -41.1919   ZZ=            -35.9365
   XY=             -2.7556   XZ=              0.2820   YZ=             -2.7609

 1\1\GINC-GTX1080DELTA\Scan\RHF\6-31G(d)\C4H10O2\MVEROT\18-Apr-2022\0\\
 # hf/6-31G* Opt=modredundant\\Optimisation de geometrie\\0,1\C,2.15755
 93402,2.8834542129,1.2910184529\C,1.0412394198,2.1437849923,2.02212463
 15\O,1.1296442213,0.7383002212,1.9098356063\C,3.5572799963,2.806483694
 6,1.9184299791\C,4.2491361522,1.4422789908,1.9015013736\O,3.7787309134
 ,0.5530536029,2.8695265559\H,1.8680473038,3.9309777685,1.2402230271\H,
 2.1960390119,2.5332839064,0.2592772005\H,0.0750823878,2.474699502,1.65
 09951586\H,1.0738127394,2.3558553016,3.082488938\H,0.9573734779,0.4787

 Normal termination of Gaussian 09 at Mon Apr 18 01:09:37 2022.
