 Gaussian 09, Revision D.01,
 Gaussian 09:  AM64L-G09RevD.01 24-Apr-2013

 ----------
 #n AM1 Opt
 ----------

 ---------------------
 Geometry optimization
 ---------------------
 Symbolic Z-matrix:
 Charge =  0 Multiplicity = 1

 SCF Done:  E(RAM1) =  0.542966246542E-02 A.U. after   14 cycles
 SCF Done:  E(RAM1) = -0.335953136107E-02 A.U. after   14 cycles
 SCF Done:  E(RAM1) = -0.886253568535E-02 A.U. after   14 cycles
 SCF Done:  E(RAM1) = -0.901962238447E-02 A.U. after   12 cycles
 SCF Done:  E(RAM1) = -0.905109243058E-02 A.U. after   11 cycles
 SCF Done:  E(RAM1) = -0.905054176337E-02 A.U. after   11 cycles
 SCF Done:  E(RAM1) = -0.905308438166E-02 A.U. after   11 cycles
 SCF Done:  E(RAM1) = -0.905369992336E-02 A.U. after   10 cycles
 SCF Done:  E(RAM1) = -0.905406836841E-02 A.U. after   10 cycles
 SCF Done:  E(RAM1) =  0.601956911786E-01 A.U. after   16 cycles
 SCF Done:  E(RAM1) = -0.157635843864E-01 A.U. after   14 cycles
 SCF Done:  E(RAM1) = -0.158748592127E-01 A.U. after   13 cycles
 SCF Done:  E(RAM1) = -0.159324722115E-01 A.U. after   13 cycles
 SCF Done:  E(RAM1) = -0.159553151826E-01 A.U. after   12 cycles
 SCF Done:  E(RAM1) = -0.159605940823E-01 A.U. after   12 cycles
 SCF Done:  E(RAM1) = -0.159621137942E-01 A.U. after   11 cycles
 SCF Done:  E(RAM1) = -0.159627690800E-01 A.U. after   11 cycles
 SCF Done:  E(RAM1) = -0.159630966190E-01 A.U. after   10 cycles
 SCF Done:  E(RAM1) = -0.159634952233E-01 A.U. after   11 cycles
 SCF Done:  E(RAM1) = -0.159637307682E-01 A.U. after   11 cycles
 Optimization completed.
    -- Stationary point found.

                         Standard orientation:
 ---------------------------------------------------------------------
 Center     Atomic      Atomic             Coordinates (Angstroms)
 Number     Number       Type             X           Y           Z
 ---------------------------------------------------------------------
      1          6           0        0.647830    1.473675   -0.000901
      2          6           0        1.909523    0.702203   -0.000943
      3          6           0       -0.610293    0.700750   -0.001355
      4          8           0        0.649807    2.713830    0.001110
      5          6           0        0.647813   -1.473673    0.001309
      6          6           0       -0.610250   -0.700753    0.001547
      7          8           0        0.649808   -2.713832   -0.000285
      8          6           0        1.909528   -0.702208    0.001015
      9          6           0        3.126346    1.394191   -0.002241
     10          6           0       -1.822639   -1.390401   -0.003735
     11          6           0        3.126348   -1.394193    0.001992
     12          6           0       -1.822633    1.390425    0.003761
     13          6           0        4.334381    0.696738   -0.001419
     14          6           0        4.334383   -0.696738    0.000828
     15          6           0       -3.060399    0.717568    0.005503
     16          6           0       -3.060332   -0.717547   -0.005712
     17          1           0        3.114894    2.496988   -0.003931
     18          1           0       -1.791774   -2.494708   -0.004366
     19          1           0        3.114893   -2.496991    0.003710
     20          1           0       -1.791828    2.494727    0.004524
     21          1           0        5.285625    1.250092   -0.002512
     22          1           0        5.285629   -1.250090    0.001655
     23          7           0       -4.262169    1.439111   -0.070747
     24          7           0       -4.262289   -1.439085    0.070493
     25          1           0       -4.982905   -1.081711   -0.521565
     26          1           0       -4.137062   -2.422374   -0.050098
     27          1           0       -4.137273    2.422376    0.049869
     28          1           0       -4.983547    1.081301    0.519990
 ---------------------------------------------------------------------

 The electronic state is 1-A.
 Alpha  occ. eigenvalues --   -1.53086  -1.46576  -1.44369  -1.40556  -1.31631
 Alpha  occ. eigenvalues --   -1.29897  -1.20888  -1.17405  -1.13204  -1.07690
 Alpha  occ. eigenvalues --   -0.97602  -0.91932  -0.87031  -0.84670  -0.80358
 Alpha  occ. eigenvalues --   -0.74232  -0.69973  -0.67855  -0.64709  -0.63730
 Alpha  occ. eigenvalues --   -0.61641  -0.61486  -0.60778  -0.58556  -0.57360
 Alpha  occ. eigenvalues --   -0.55732  -0.55175  -0.54793  -0.54145  -0.53775
 Alpha  occ. eigenvalues --   -0.53012  -0.50927  -0.48921  -0.48194  -0.46909
 Alpha  occ. eigenvalues --   -0.45412  -0.44418  -0.43033  -0.40944  -0.39262
 Alpha  occ. eigenvalues --   -0.37273  -0.36961  -0.35331  -0.31761
 Alpha virt. eigenvalues --   -0.04614  -0.00937  -0.00191   0.00536   0.05085
 Alpha virt. eigenvalues --    0.05767   0.08705   0.09483   0.09790   0.10357
 Alpha virt. eigenvalues --    0.10796   0.11007   0.12897   0.13173   0.13315

 Mulliken charges:
               1
     1  C    0.308981
     2  C   -0.106256
     3  C   -0.109686
     4  O   -0.293880
     5  C    0.309004
     6  C   -0.109898
     7  O   -0.293904
     8  C   -0.106240
     9  C   -0.088324
    10  C   -0.122894
    11  C   -0.088329
    12  C   -0.123105
    13  C   -0.118089
    14  C   -0.118080
    15  C    0.018603
    16  C    0.018120
    17  H    0.159746
    18  H    0.158509
    19  H    0.159749
    20  H    0.158508
    21  H    0.140610
    22  H    0.140610
    23  N   -0.317245
    24  N   -0.316970
    25  H    0.186823
    26  H    0.183221
    27  H    0.183386
    28  H    0.187029
 Sum of Mulliken charges =   0.00000

 Dipole moment (field-independent basis, Debye):
    X=             -1.1413    Y=              0.0014    Z=             -0.0025  Tot=              1.1413
 N-N= 6.538790878213D+02 E-N=-1.180572085421D+03  KE=-6.195418140201D+01
 1\1\GINC-GTX1080DELTA\FOpt\RAM1\ZDO\C14H10N2O2\MVEROT\12-Apr-2022\0\\#
 n AM1 Opt\\Geometry optimization\\0,1\C,0.0061605114,1.4798041206,-0.0
 375067674\C,1.2681309806,0.7090010014,-0.0193163463\C,-1.2516783615,0.
 7067865554,-0.0136058826\O,0.0076909993,2.7195438813,-0.0697071385\C,0
 .0072228357,-1.4663614551,0.0459941345\C,-1.251116957,-0.6941034938,0.
 0279509474\O,0.0096659442,-2.7060918002,0.0786021847\C,1.268652336,-0.
 6948221839,0.0213767562\C,2.4846954657,1.4010515683,-0.0426368182\C,-2
 .4632645719,-1.3839956369,0.0446196312\C,2.4857235108,-1.3861545312,0.
 0385025697\C,-2.4642533658,1.3959787812,-0.0245877331\C,3.6929827693,0

 Normal termination of Gaussian 09 at Tue Apr 12 01:07:38 2022.
