 Gaussian 09, Revision D.01,
 Gaussian 09:  AM64L-G09RevD.01 24-Apr-2013

 ----------
 #n AM1 Opt
 ----------

 ---------------------
 Geometry optimization
 ---------------------
 Symbolic Z-matrix:
 Charge =  0 Multiplicity = 1

 SCF Done:  E(RAM1) = -0.141976121811     A.U. after   16 cycles
 SCF Done:  E(RAM1) = -0.144680172097     A.U. after   15 cycles
 SCF Done:  E(RAM1) = -0.153658814729     A.U. after   14 cycles
 SCF Done:  E(RAM1) = -0.153983879279     A.U. after   13 cycles
 SCF Done:  E(RAM1) = -0.154055328015     A.U. after   11 cycles
 SCF Done:  E(RAM1) = -0.154062113340     A.U. after   11 cycles
 SCF Done:  E(RAM1) = -0.154062793309     A.U. after   10 cycles
 SCF Done:  E(RAM1) = -0.154062741345     A.U. after   10 cycles
 Optimization completed.
    -- Stationary point found.

                         Standard orientation:
 ---------------------------------------------------------------------
 Center     Atomic      Atomic             Coordinates (Angstroms)
 Number     Number       Type             X           Y           Z
 ---------------------------------------------------------------------
      1          6           0        0.000022   -1.113059    0.000661
      2          6           0       -1.268146   -0.369070    0.000282
      3          6           0        1.268156   -0.369050    0.000282
      4          8           0        0.000084   -2.363597   -0.000042
      5          6           0        0.000011    1.807446    0.000557
      6          6           0        1.266127    1.043941    0.000254
      7          8           0        0.000008    3.047425   -0.000026
      8          6           0       -1.266102    1.043932    0.000253
      9          6           0       -2.515827   -1.025760   -0.000039
     10          6           0        2.456894    1.763482   -0.000060
     11          6           0       -2.456852    1.763498   -0.000061
     12          6           0        2.515798   -1.025769   -0.000040
     13          6           0       -3.725971   -0.284735   -0.000354
     14          6           0       -3.688441    1.094625   -0.000359
     15          6           0        3.725969   -0.284787   -0.000354
     16          6           0        3.688470    1.094577   -0.000357
     17          1           0       -2.423917    2.865856   -0.000072
     18          1           0       -4.677374   -0.838141   -0.000593
     19          1           0       -4.624171    1.675300   -0.000608
     20          1           0        4.624213    1.675229   -0.000606
     21          1           0        4.677356   -0.838222   -0.000593
     22          8           0       -2.718235   -2.374674   -0.000073
     23          1           0       -1.876859   -2.858632    0.000144
     24          1           0        2.423985    2.865842   -0.000070
     25          8           0        2.718081   -2.374697   -0.000076
     26          1           0        1.876620   -2.858512    0.000146
 ---------------------------------------------------------------------

 The electronic state is 1-A.
 Alpha  occ. eigenvalues --   -1.54993  -1.49019  -1.47048  -1.41772  -1.38915
 Alpha  occ. eigenvalues --   -1.37973  -1.25526  -1.16693  -1.14465  -1.13802
 Alpha  occ. eigenvalues --   -0.99905  -0.94380  -0.91538  -0.84805  -0.82326
 Alpha  occ. eigenvalues --   -0.76244  -0.71081  -0.70904  -0.69482  -0.63716
 Alpha  occ. eigenvalues --   -0.63533  -0.62239  -0.60776  -0.59881  -0.58853
 Alpha  occ. eigenvalues --   -0.57371  -0.57063  -0.56956  -0.55535  -0.54194
 Alpha  occ. eigenvalues --   -0.54181  -0.53082  -0.50224  -0.49163  -0.48024
 Alpha  occ. eigenvalues --   -0.48022  -0.47576  -0.46980  -0.42430  -0.40200
 Alpha  occ. eigenvalues --   -0.38873  -0.38252  -0.35492  -0.34850
 Alpha virt. eigenvalues --   -0.05984  -0.01731  -0.01273  -0.00065   0.03995
 Alpha virt. eigenvalues --    0.04651   0.07969   0.08359   0.08813   0.09488
 Alpha virt. eigenvalues --    0.09774   0.09977   0.11554   0.12403   0.12539

 Mulliken charges:
               1
     1  C    0.343897
     2  C   -0.203668
     3  C   -0.203692
     4  O   -0.376648
     5  C    0.299871
     6  C   -0.071241
     7  O   -0.280743
     8  C   -0.071243
     9  C    0.158484
    10  C   -0.122627
    11  C   -0.122627
    12  C    0.158489
    13  C   -0.155043
    14  C   -0.078329
    15  C   -0.155044
    16  C   -0.078328
    17  H    0.164219
    18  H    0.160610
    19  H    0.146388
    20  H    0.146387
    21  H    0.160610
    22  O   -0.254484
    23  H    0.262512
    24  H    0.164218
    25  O   -0.254491
    26  H    0.262524
 Sum of Mulliken charges =   0.00000

 Dipole moment (field-independent basis, Debye):
    X=             -0.0003    Y=              0.5955    Z=              0.0016  Tot=              0.5955
 N-N= 6.754397977620D+02 E-N=-1.221607108029D+03  KE=-6.241385701279D+01
 1\1\GINC-GTX1080DELTA\FOpt\RAM1\ZDO\C14H8O4\MVEROT\11-Apr-2022\0\\#n A
 M1 Opt\\Geometry optimization\\0,1\C,-0.0056420932,1.4692684839,0.0010
 211896\C,1.2628429089,0.7258194586,0.0005217922\C,-1.2734590196,0.7247
 192878,0.0004733302\O,-0.0062379328,2.7198064037,0.0005616321\C,-0.004
 3873384,-1.4512359811,0.0003499158\C,-1.2708277218,-0.6882712705,0.000
 1705391\O,-0.0038555414,-2.6912151481,-0.000474179\C,1.261400608,-0.68
 71831229,0.000218264\C,2.5102430246,1.3830418374,0.0003517563\C,-2.461
 288078,-1.4083193736,-0.0003052111\C,2.4524572025,-1.4062410057,-0.000
 2130343\C,-2.5213813332,1.3809063656,0.0002553289\C,3.7207034716,0.642

 Normal termination of Gaussian 09 at Mon Apr 11 23:41:05 2022.
