 Gaussian 09, Revision D.01,
 Gaussian 09:  AM64L-G09RevD.01 24-Apr-2013

 ----------
 #n PM3 Opt
 ----------

 -------------------------
 Optimisation de geometrie
 -------------------------
 Symbolic Z-matrix:
 Charge =  0 Multiplicity = 1

 SCF Done:  E(RPM3) = -0.151488500065     A.U. after   13 cycles
 SCF Done:  E(RPM3) = -0.155104992887     A.U. after   12 cycles
 SCF Done:  E(RPM3) = -0.155539972601     A.U. after   11 cycles
 SCF Done:  E(RPM3) = -0.155654094749     A.U. after   11 cycles
 SCF Done:  E(RPM3) = -0.155729217894     A.U. after   12 cycles
 SCF Done:  E(RPM3) = -0.155743541059     A.U. after   11 cycles
 SCF Done:  E(RPM3) = -0.155748350474     A.U. after   10 cycles
 SCF Done:  E(RPM3) = -0.155753078442     A.U. after   10 cycles
 SCF Done:  E(RPM3) = -0.155756826358     A.U. after   10 cycles
 SCF Done:  E(RPM3) = -0.155759338833     A.U. after   10 cycles
 SCF Done:  E(RPM3) = -0.155760621492     A.U. after   10 cycles
 SCF Done:  E(RPM3) = -0.155760718720     A.U. after    9 cycles
 Optimization completed.
    -- Stationary point found.

                         Standard orientation:
 ---------------------------------------------------------------------
 Center     Atomic      Atomic             Coordinates (Angstroms)
 Number     Number       Type             X           Y           Z
 ---------------------------------------------------------------------
      1          6           0        0.692796    0.540993   -0.303516
      2          8           0        1.414261   -0.548982    0.223604
      3          6           0       -0.710775    0.515033    0.322063
      4          8           0       -1.532649   -0.486284   -0.211700
      5          1           0        0.640932    0.475948   -1.408000
      6          1           0        1.201749    1.490346   -0.048122
      7          1           0        2.244530   -0.570894   -0.231699
      8          1           0       -1.256831    1.443571    0.081229
      9          1           0       -0.656731    0.426738    1.424858
     10          1           0       -1.118667   -1.319737   -0.024780
 ---------------------------------------------------------------------

 The electronic state is 1-A.
 Alpha  occ. eigenvalues --   -1.46339  -1.34110  -1.06295  -0.81651  -0.68894
 Alpha  occ. eigenvalues --   -0.63617  -0.60291  -0.58161  -0.53444  -0.49694
 Alpha  occ. eigenvalues --   -0.45438  -0.41383  -0.40834
 Alpha virt. eigenvalues --    0.11044   0.12833   0.13208   0.13462   0.14756
 Alpha virt. eigenvalues --    0.16241   0.16948   0.19781   0.21165

 Mulliken charges:
               1
     1  C    0.028554
     2  O   -0.318028
     3  C    0.059661
     4  O   -0.312267
     5  H    0.035979
     6  H    0.028896
     7  H    0.190501
     8  H    0.053962
     9  H    0.039130
    10  H    0.193612
 Sum of Mulliken charges =   0.00000

 Dipole moment (field-independent basis, Debye):
    X=              1.7914    Y=              0.6854    Z=             -0.3728  Tot=              1.9539
 N-N= 1.008041693538D+02 E-N=-1.644097395172D+02  KE=-1.850709716430D+01
 1\1\GINC-GTX1080DELTA\FOpt\RPM3\ZDO\C2H6O2\MVEROT\17-Apr-2022\0\\#n PM
 3 Opt\\Optimisation de geometrie\\0,1\C,1.0840648547,2.1927037398,1.64
 09696307\O,1.5435761955,2.1190392422,2.9713222227\C,1.3551950007,0.831
 9818762,0.9799419733\O,2.7058734562,0.632375928,0.6655473262\H,1.59481
 10641,3.0115543083,1.0974378011\H,-0.0016126308,2.4086869526,1.6273163
 671\H,1.4485203035,2.9863194922,3.3399919285\H,0.8570452392,0.77562444
 52,-0.0034351469\H,0.9742771737,-0.0000426223,1.6040483947\H,3.1915493
 43,0.6583566378,1.4806595026\\Version=AM64L-G09RevD.01\State=1-A\HF=-0
 .1557607\RMSD=7.595e-09\RMSF=7.051e-06\Dipole=-0.4198979,0.5797174,0.2

 Normal termination of Gaussian 09 at Sun Apr 17 23:22:57 2022.
