 Gaussian 09, Revision D.01,
 Gaussian 09:  AM64L-G09RevD.01 24-Apr-2013

 ----------
 #n AM1 Opt
 ----------

 -------------------------------------------------------
 Optimisation of chloromethane using the AM1 hamiltonian
 -------------------------------------------------------
 Symbolic Z-matrix:
 Charge =  0 Multiplicity = 1

 SCF Done:  E(RAM1) = -0.237017083216E-01 A.U. after   11 cycles
 SCF Done:  E(RAM1) = -0.297744808138E-01 A.U. after   10 cycles
 SCF Done:  E(RAM1) = -0.301586896877E-01 A.U. after    9 cycles
 SCF Done:  E(RAM1) = -0.302438611183E-01 A.U. after    9 cycles
 Optimization completed.
    -- Stationary point found.

                         Standard orientation:
 ---------------------------------------------------------------------
 Center     Atomic      Atomic             Coordinates (Angstroms)
 Number     Number       Type             X           Y           Z
 ---------------------------------------------------------------------
      1          6           0       -0.000000   -0.000000   -1.098070
      2          1           0        0.000000    1.055442   -1.446492
      3          1           0       -0.914040   -0.527721   -1.446492
      4          1           0        0.914040   -0.527721   -1.446492
      5         17           0        0.000000    0.000000    0.642817
 ---------------------------------------------------------------------

 The electronic state is 1-A1.
 Alpha  occ. eigenvalues --   -1.36967  -1.06015  -0.55679  -0.55679  -0.54638
 Alpha  occ. eigenvalues --   -0.41666  -0.41666
 Alpha virt. eigenvalues --    0.05877   0.14206   0.14206   0.15422

 Mulliken charges:
               1
     1  C   -0.177582
     2  H    0.098016
     3  H    0.098016
     4  H    0.098016
     5  Cl  -0.116464
 Sum of Mulliken charges =  -0.00000

 Dipole moment (field-independent basis, Debye):
    X=              0.0000    Y=             -0.0000    Z=             -1.5119  Tot=              1.5119
 N-N= 3.686538626008D+01 E-N=-5.558691980719D+01  KE=-8.358122032666D+00
 Symmetry A'   KE=-6.739186565554D+00
 Symmetry A"   KE=-1.618935467113D+00
 1\1\GINC-GTX1080DELTA\FOpt\RAM1\ZDO\C1H3Cl1\MVEROT\11-Apr-2022\0\\#n A
 M1 Opt\\Optimisation of chloromethane using the AM1 hamiltonian\\0,1\C
 ,0.0133795905,-0.0231740445,0.0094608649\H,0.0017199336,-0.0029790155,
 1.1206820121\H,1.0571624054,-0.0029789214,-0.3719389475\H,-0.526001182
 4,-0.9170189613,-0.3719390187\Cl,-0.8072828075,1.3982547892,-0.5708350
 304\\Version=AM64L-G09RevD.01\State=1-A1\HF=-0.0302439\RMSD=3.752e-10\
 RMSF=5.447e-05\Dipole=0.2804057,-0.4856769,0.1982768\PG=C03V [C3(C1Cl1

 Normal termination of Gaussian 09 at Mon Apr 11 13:16:33 2022.
