 Gaussian 09, Revision D.01,
 Gaussian 09:  AM64L-G09RevD.01 24-Apr-2013

 ---------
 #n AM1 SP
 ---------

 -------------------------------------------------
 Energy of chloromethane using the AM1 hamiltonian
 -------------------------------------------------
 Symbolic Z-matrix:
 Charge =  0 Multiplicity = 1

                         Standard orientation:
 ---------------------------------------------------------------------
 Center     Atomic      Atomic             Coordinates (Angstroms)
 Number     Number       Type             X           Y           Z
 ---------------------------------------------------------------------
      1          6           0        0.000000   -0.000000   -1.032753
      2          1           0        0.000000    1.027662   -1.396086
      3          1           0       -0.889981   -0.513831   -1.396086
      4          1           0        0.889981   -0.513831   -1.396086
      5         17           0       -0.000000    0.000000    0.610869
 ---------------------------------------------------------------------

 SCF Done:  E(RAM1) = -0.237017083216E-01 A.U. after   11 cycles

 The electronic state is 1-A1.
 Alpha  occ. eigenvalues --   -1.39861  -1.07671  -0.57080  -0.57080  -0.56377
 Alpha  occ. eigenvalues --   -0.41244  -0.41244
 Alpha virt. eigenvalues --    0.07273   0.14502   0.14502   0.16492

 Mulliken charges:
               1
     1  C   -0.201437
     2  H    0.090777
     3  H    0.090777
     4  H    0.090777
     5  Cl  -0.070894
 Sum of Mulliken charges =  -0.00000

 Dipole moment (field-independent basis, Debye):
    X=             -0.0000    Y=             -0.0000    Z=             -1.1681  Tot=              1.1681
 N-N= 3.744309212648D+01 E-N=-5.648839351188D+01  KE=-8.434069944372D+00
 Symmetry A'   KE=-6.811785270844D+00
 Symmetry A"   KE=-1.622284673528D+00
 1\1\GINC-GTX1080DELTA\SP\RAM1\ZDO\C1H3Cl1\MVEROT\11-Apr-2022\0\\#n AM1
  SP\\Energy of chloromethane using the AM1 hamiltonian\\0,1\C,0,0.,0.,
 0.\H,0,0.,0.,1.09\H,0,1.027662,0.,-0.363333\H,0,-0.513831,-0.889981,-0
 .363333\Cl,0,-0.774811,1.342012,-0.547874\\Version=AM64L-G09RevD.01\St
 ate=1-A1\HF=-0.0237017\RMSD=3.422e-09\Dipole=0.2166374,-0.3752269,0.15
 31858\PG=C03V [C3(C1Cl1),3SGV(H1)]\\@

 Normal termination of Gaussian 09 at Mon Apr 11 13:16:14 2022.
