 Gaussian 09, Revision D.01,
 Gaussian 09:  AM64L-G09RevD.01 24-Apr-2013

 ----------
 #n AM1 Opt
 ----------

 ---------------------
 Geometry optimization
 ---------------------
 Symbolic Z-matrix:
 Charge =  0 Multiplicity = 1

 SCF Done:  E(RAM1) = -0.145473375628     A.U. after   16 cycles
 SCF Done:  E(RAM1) = -0.149406876134     A.U. after   13 cycles
 SCF Done:  E(RAM1) = -0.150154480084     A.U. after   12 cycles
 SCF Done:  E(RAM1) = -0.150196887686     A.U. after   11 cycles
 SCF Done:  E(RAM1) = -0.150202328553     A.U. after   10 cycles
 Optimization completed.
    -- Stationary point found.

                         Standard orientation:
 ---------------------------------------------------------------------
 Center     Atomic      Atomic             Coordinates (Angstroms)
 Number     Number       Type             X           Y           Z
 ---------------------------------------------------------------------
      1          6           0       -0.000000   -1.299564    0.000016
      2          6           0       -1.262977   -0.526767    0.000010
      3          6           0        1.262977   -0.526767    0.000010
      4          8           0       -0.000000   -2.537898   -0.000039
      5          6           0        0.000000    1.648645    0.000016
      6          6           0        1.259139    0.879403    0.000010
      7          8           0       -0.000000    2.889343   -0.000037
      8          6           0       -1.259139    0.879403    0.000009
      9          6           0       -2.469939   -1.225798    0.000007
     10          6           0        2.474490    1.574656    0.000006
     11          6           0       -2.474490    1.574656    0.000003
     12          6           0        2.469939   -1.225798    0.000005
     13          6           0       -3.680950   -0.510034    0.000003
     14          6           0       -3.687087    0.891177    0.000000
     15          6           0        3.680950   -0.510034    0.000002
     16          6           0        3.687087    0.891177    0.000003
     17          1           0       -2.479064   -2.327978    0.000007
     18          1           0        2.458792    2.678151    0.000005
     19          1           0       -2.458792    2.678151    0.000001
     20          1           0        2.479064   -2.327978    0.000004
     21          1           0       -4.636954    1.444807   -0.000004
     22          1           0        4.636954    1.444808    0.000000
     23          8           0       -4.830158   -1.261060    0.000001
     24          1           0       -5.586626   -0.655352    0.000001
     25          8           0        4.830158   -1.261060   -0.000001
     26          1           0        5.586626   -0.655352   -0.000006
 ---------------------------------------------------------------------

 The electronic state is 1-A.
 Alpha  occ. eigenvalues --   -1.54022  -1.49292  -1.45709  -1.44972  -1.38730
 Alpha  occ. eigenvalues --   -1.36702  -1.22646  -1.18641  -1.16716  -1.11898
 Alpha  occ. eigenvalues --   -0.99593  -0.93264  -0.90309  -0.84973  -0.81373
 Alpha  occ. eigenvalues --   -0.77970  -0.72208  -0.69301  -0.69024  -0.63046
 Alpha  occ. eigenvalues --   -0.62940  -0.62218  -0.60343  -0.59698  -0.58460
 Alpha  occ. eigenvalues --   -0.57157  -0.55933  -0.55704  -0.55120  -0.54672
 Alpha  occ. eigenvalues --   -0.54303  -0.53455  -0.52386  -0.50776  -0.48069
 Alpha  occ. eigenvalues --   -0.47002  -0.46252  -0.45981  -0.41512  -0.39928
 Alpha  occ. eigenvalues --   -0.38229  -0.38005  -0.35648  -0.35137
 Alpha virt. eigenvalues --   -0.05207  -0.01579  -0.00947  -0.00085   0.04482
 Alpha virt. eigenvalues --    0.05228   0.08110   0.08130   0.09392   0.09690
 Alpha virt. eigenvalues --    0.10296   0.10760   0.11930   0.12282   0.12299

 Mulliken charges:
               1
     1  C    0.302087
     2  C   -0.072719
     3  C   -0.072719
     4  O   -0.273320
     5  C    0.314819
     6  C   -0.146636
     7  O   -0.298855
     8  C   -0.146636
     9  C   -0.115133
    10  C   -0.045221
    11  C   -0.045221
    12  C   -0.115133
    13  C    0.096071
    14  C   -0.206662
    15  C    0.096071
    16  C   -0.206662
    17  H    0.178122
    18  H    0.162893
    19  H    0.162893
    20  H    0.178122
    21  H    0.143406
    22  H    0.143406
    23  O   -0.240679
    24  H    0.224192
    25  O   -0.240679
    26  H    0.224192
 Sum of Mulliken charges =  -0.00000

 Dipole moment (field-independent basis, Debye):
    X=              0.0000    Y=              2.0685    Z=              0.0002  Tot=              2.0685
 N-N= 6.580469267356D+02 E-N=-1.187338006417D+03  KE=-6.206993060655D+01
 1\1\GINC-GTX1080DELTA\FOpt\RAM1\ZDO\C14H8O4\MVEROT\11-Apr-2022\0\\#n A
 M1 Opt\\Geometry optimization\\0,1\C,0.0043018188,1.4680461653,0.00034
 13332\C,1.2636789912,0.6893962792,0.0001874874\C,-1.2622477285,0.70111
 78826,0.0001433237\O,0.0100482533,2.7063660911,0.0005585814\C,-0.00937
 91774,-1.4801318619,-0.0003075801\C,-1.2649354796,-0.705055251,-0.0001
 66025\O,-0.0151364426,-2.7208164,-0.0006330694\C,1.2533163301,-0.71674
 10425,-0.0001233038\C,2.4738720391,1.3828189662,0.0003589983\C,-2.4834
 992182,-1.3946607137,-0.0003446032\C,2.4654276652,-1.4176261201,-0.000
 2613068\C,-2.4659530827,1.4057420771,0.0002716358\C,3.6815483988,0.661

 Normal termination of Gaussian 09 at Mon Apr 11 23:41:27 2022.
