 Gaussian 09, Revision D.01,
 Gaussian 09:  AM64L-G09RevD.01 24-Apr-2013

 --------------------
 # hf/6-31G* opt freq
 --------------------

 -------------------------
 Optimisation de geometrie
 -------------------------
 Symbolic Z-matrix:
 Charge =  0 Multiplicity = 1

 SCF Done:  E(RHF) =  -117.058186518     A.U. after    9 cycles
 SCF Done:  E(RHF) =  -117.058859564     A.U. after    8 cycles
 SCF Done:  E(RHF) =  -117.058865192     A.U. after    7 cycles
 Optimization completed.
    -- Stationary point found.
 Normal termination of Gaussian 09 at Sat Apr 16 12:25:36 2022.

 -----------------------------------------------------------------
 #N Geom=AllCheck Guess=TCheck SCRF=Check GenChk RHF/6-31G(d) Freq
 -----------------------------------------------------------------

 Structure from the checkpoint file:  "cyclopropane-opt.chk"
 -------------------------
 Optimisation de geometrie
 -------------------------
 Charge =  0 Multiplicity = 1

                         Standard orientation:
 ---------------------------------------------------------------------
 Center     Atomic      Atomic             Coordinates (Angstroms)
 Number     Number       Type             X           Y           Z
 ---------------------------------------------------------------------
      1          6           0       -0.340233    0.794748    0.000001
      2          6           0        0.858404   -0.102725   -0.000000
      3          6           0       -0.518160   -0.692028   -0.000005
      4          1           0       -0.570752    1.333158    0.902464
      5          1           0       -0.570746    1.333165   -0.902459
      6          1           0        1.439927   -0.172289   -0.902471
      7          1           0        1.439929   -0.172334    0.902466
      8          1           0       -0.869222   -1.160859   -0.902453
      9          1           0       -0.869198   -1.160812    0.902478
 ---------------------------------------------------------------------

 SCF Done:  E(RHF) =  -117.058865192     A.U. after    1 cycles

 The electronic state is 1-A.
 Alpha  occ. eigenvalues --  -11.21943 -11.21841 -11.21841  -1.13337  -0.81766
 Alpha  occ. eigenvalues --   -0.81766  -0.66780  -0.62862  -0.51099  -0.51099
 Alpha  occ. eigenvalues --   -0.41746  -0.41746
 Alpha virt. eigenvalues --    0.24670   0.25952   0.30646   0.30646   0.32921
 Alpha virt. eigenvalues --    0.38540   0.38540   0.43109   0.43109   0.66032
 Alpha virt. eigenvalues --    0.74833   0.76432   0.76433   0.91419   0.92326

 Mulliken charges:
               1
     1  C   -0.358420
     2  C   -0.358424
     3  C   -0.358422
     4  H    0.179209
     5  H    0.179210
     6  H    0.179212
     7  H    0.179213
     8  H    0.179212
     9  H    0.179210
 Sum of Mulliken charges =  -0.00000

 Dipole moment (field-independent basis, Debye):
    X=             -0.0000    Y=              0.0000    Z=             -0.0000  Tot=              0.0000
 Quadrupole moment (field-independent basis, Debye-Ang):
   XX=            -20.5627   YY=            -20.5630   ZZ=            -18.4318
   XY=             -0.0000   XZ=              0.0000   YZ=             -0.0000

  Exact polarizability:  29.173  -0.000  29.173  -0.000  -0.000  28.235
 Approx polarizability:  24.576  -0.000  24.575   0.000  -0.000  25.053

                      1                      2                      3
                      A                      A                      A
 Frequencies --    806.0117               806.0200               923.8326
 Red. masses --      1.0232                 1.0232                 1.0447
 Frc consts  --      0.3917                 0.3917                 0.5253
 IR Inten    --      0.0000                 0.0000                 0.0110
 Raman Activ --      2.7860                 2.7858                 0.0000

                      4                      5                      6
                      A                      A                      A
 Frequencies --    961.2887               961.3174              1191.7524
 Red. masses --      3.1600                 3.1599                 1.3397
 Frc consts  --      1.7204                 1.7205                 1.1210
 IR Inten    --     25.0144                25.0120                 3.8781
 Raman Activ --     18.7959                18.7959                 0.3611

                      7                      8                      9
                      A                      A                      A
 Frequencies --   1191.7585              1224.3196              1268.3280
 Red. masses --      1.3397                 1.4275                 1.0078
 Frc consts  --      1.1211                 1.2607                 0.9552
 IR Inten    --      3.8774                 0.0000                 0.0000
 Raman Activ --      0.3610                 0.0000                 0.0000

                     10                     11                     12
                      A                      A                      A
 Frequencies --   1302.9727              1330.5296              1330.5367
 Red. masses --      2.6268                 1.4445                 1.4445
 Frc consts  --      2.6275                 1.5067                 1.5067
 IR Inten    --      0.0000                 0.0000                 0.0000
 Raman Activ --     34.7043                10.4580                10.4583

                     13                     14                     15
                      A                      A                      A
 Frequencies --   1615.8300              1615.8339              1679.6883
 Red. masses --      1.0923                 1.0923                 1.3356
 Frc consts  --      1.6803                 1.6803                 2.2201
 IR Inten    --      0.0699                 0.0699                 0.0000
 Raman Activ --      7.8050                 7.8056                 3.9389

                     16                     17                     18
                      A                      A                      A
 Frequencies --   3305.9905              3305.9953              3320.0935
 Red. masses --      1.0516                 1.0516                 1.0657
 Frc consts  --      6.7718                 6.7718                 6.9211
 IR Inten    --     37.6885                37.6873                 0.0000
 Raman Activ --     19.6320                19.6313               240.4373

                     19                     20                     21
                      A                      A                      A
 Frequencies --   3380.1444              3380.1542              3402.5698
 Red. masses --      1.1204                 1.1204                 1.1154
 Frc consts  --      7.5422                 7.5422                 7.6084
 IR Inten    --      0.0000                 0.0000                57.3228
 Raman Activ --     99.7644                99.7662                 0.0000

 - Thermochemistry -
 -------------------
 Temperature   298.150 Kelvin.  Pressure   1.00000 Atm.
 Atom     1 has atomic number  6 and mass  12.00000

 Molecular mass:    42.04695 amu.
 Principal axes and moments of inertia in atomic units:
                           1         2         3
     Eigenvalues --    88.33505  88.33703 141.49783
           X            0.99971  -0.02387  -0.00000
           Y            0.02387   0.99971  -0.00000
           Z            0.00000   0.00000   1.00000
 This molecule is an asymmetric top.
 Rotational symmetry number  1.
 Rotational temperatures (Kelvin)      0.98051     0.98049     0.61212
 Rotational constants (GHZ):          20.43063    20.43018    12.75455
 Zero-point vibrational energy     229114.6 (Joules/Mol)
                                   54.75970 (Kcal/Mol)
 Vibrational temperatures:   1159.67  1159.68  1329.19  1383.08  1383.12
          (Kelvin)           1714.66  1714.67  1761.52  1824.84  1874.68
                             1914.33  1914.34  2324.82  2324.82  2416.69
                             4756.58  4756.58  4776.87  4863.27  4863.28
                             4895.53

 Zero-point correction=                           0.087265 (Hartree/Particle)
 Thermal correction to Energy=                    0.090488
 Thermal correction to Enthalpy=                  0.091432
 Thermal correction to Gibbs Free Energy=         0.063036
 Sum of electronic and zero-point Energies=           -116.971600
 Sum of electronic and thermal Energies=              -116.968378
 Sum of electronic and thermal Enthalpies=            -116.967433
 Sum of electronic and thermal Free Energies=         -116.995829

                     E (Thermal)             CV                S
                      KCal/Mol        Cal/Mol-Kelvin    Cal/Mol-Kelvin
 Total                   56.782              9.882             59.764
 Electronic               0.000              0.000              0.000
 Translational            0.889              2.981             37.136
 Rotational               0.889              2.981             21.628
 Vibrational             55.004              3.921              1.000

 Optimization completed.
    -- Stationary point found.
 Normal termination of Gaussian 09 at Sat Apr 16 12:25:40 2022.
