 Gaussian 09, Revision D.01,
 Gaussian 09:  AM64L-G09RevD.01 24-Apr-2013

 ---------------
 # hf/6-31G* opt
 ---------------

 -------------------------
 Optimisation de geometrie
 -------------------------
 Symbolic Z-matrix:
 Charge =  0 Multiplicity = 1

 SCF Done:  E(RHF) =  -306.992418846     A.U. after   12 cycles
 SCF Done:  E(RHF) =  -306.993352056     A.U. after   11 cycles
 SCF Done:  E(RHF) =  -306.990533556     A.U. after   11 cycles
 SCF Done:  E(RHF) =  -306.993663156     A.U. after   11 cycles
 SCF Done:  E(RHF) =  -306.995052187     A.U. after   11 cycles
 SCF Done:  E(RHF) =  -306.995390503     A.U. after   11 cycles
 SCF Done:  E(RHF) =  -306.995576760     A.U. after   10 cycles
 SCF Done:  E(RHF) =  -306.995597635     A.U. after    9 cycles
 SCF Done:  E(RHF) =  -306.995600689     A.U. after    9 cycles
 SCF Done:  E(RHF) =  -306.995602118     A.U. after    9 cycles
 SCF Done:  E(RHF) =  -306.995602442     A.U. after    8 cycles
 Optimization completed.
    -- Stationary point found.

                         Standard orientation:
 ---------------------------------------------------------------------
 Center     Atomic      Atomic             Coordinates (Angstroms)
 Number     Number       Type             X           Y           Z
 ---------------------------------------------------------------------
      1          6           0        0.802265    1.146317    0.219025
      2          6           0        1.644670   -0.018000   -0.301700
      3          8           0        1.362928   -1.240326    0.313246
      4          6           0       -0.666607    1.202435   -0.228432
      5          6           0       -1.602209    0.136572    0.324371
      6          8           0       -1.368018   -1.093646   -0.331090
      7          1           0        1.274970    2.068099   -0.114621
      8          1           0        0.855579    1.145627    1.305224
      9          1           0        2.687218    0.190030   -0.093383
     10          1           0        1.542149   -0.093428   -1.384096
     11          1           0        0.487336   -1.505498    0.057260
     12          1           0       -0.728606    1.174958   -1.313491
     13          1           0       -1.070687    2.163871    0.079875
     14          1           0       -2.630524    0.442175    0.152304
     15          1           0       -1.460690    0.025139    1.396515
     16          1           0       -1.984734   -1.743137   -0.022419
 ---------------------------------------------------------------------

 The electronic state is 1-A.
 Alpha  occ. eigenvalues --  -20.57884 -20.52526 -11.28301 -11.25441 -11.22505
 Alpha  occ. eigenvalues --  -11.21428  -1.38318  -1.33747  -1.06644  -0.96908
 Alpha  occ. eigenvalues --   -0.86749  -0.78857  -0.72750  -0.67532  -0.65452
 Alpha  occ. eigenvalues --   -0.61185  -0.60174  -0.57753  -0.54048  -0.53284
 Alpha  occ. eigenvalues --   -0.49934  -0.47391  -0.45535  -0.45042  -0.41002
 Alpha virt. eigenvalues --    0.20728   0.24664   0.27494   0.29133   0.30142
 Alpha virt. eigenvalues --    0.31817   0.32835   0.32906   0.34222   0.36737
 Alpha virt. eigenvalues --    0.38927   0.40318   0.43323   0.47629   0.48721

 Mulliken charges:
               1
     1  C   -0.338513
     2  C    0.022404
     3  O   -0.780169
     4  C   -0.336289
     5  C   -0.003461
     6  O   -0.760573
     7  H    0.155575
     8  H    0.166622
     9  H    0.159520
    10  H    0.133529
    11  H    0.483076
    12  H    0.175963
    13  H    0.164570
    14  H    0.153012
    15  H    0.154759
    16  H    0.449975
 Sum of Mulliken charges =   0.00000

 Dipole moment (field-independent basis, Debye):
    X=             -2.9223    Y=              1.2528    Z=              0.1525  Tot=              3.1832
 Quadrupole moment (field-independent basis, Debye-Ang):
   XX=            -35.6652   YY=            -37.3594   ZZ=            -39.1889
   XY=              6.0674   XZ=             -3.3803   YZ=             -0.0458

 1\1\GINC-GTX1080DELTA\FOpt\RHF\6-31G(d)\C4H10O2\MVEROT\17-Apr-2022\0\\
 # hf/6-31G* opt\\Optimisation de geometrie\\0,1\C,1.6181557122,1.26728
 79946,1.9598171293\C,1.1292832995,2.3724982071,1.0238961199\O,1.448679
 8694,3.6622793736,1.4552543299\C,3.122268175,0.95356214,1.9466414388\C
 ,4.0564387238,2.0065684238,2.5258725469\O,4.1926330354,3.0794349445,1.
 6157516642\H,1.0968341907,0.3518227286,1.6866931059\H,1.3032391704,1.5
 139518721,2.9710817304\H,0.0478334438,2.3308024816,0.9758680399\H,1.50
 2747759,2.1950695515,0.0155191046\H,2.3914048313,3.7670438684,1.402338

 Normal termination of Gaussian 09 at Sun Apr 17 23:26:09 2022.
