 Gaussian 09, Revision D.01,
 Gaussian 09:  AM64L-G09RevD.01 24-Apr-2013

 ---------------
 # hf/6-31G* opt
 ---------------

 -------------------------
 Optimisation de geometrie
 -------------------------
 Symbolic Z-matrix:
 Charge =  0 Multiplicity = 1

 SCF Done:  E(RHF) =  -228.918452785     A.U. after   11 cycles
 SCF Done:  E(RHF) =  -228.921517845     A.U. after   10 cycles
 SCF Done:  E(RHF) =  -228.921673282     A.U. after   10 cycles
 SCF Done:  E(RHF) =  -228.921706005     A.U. after    9 cycles
 SCF Done:  E(RHF) =  -228.921722065     A.U. after   10 cycles
 SCF Done:  E(RHF) =  -228.921728307     A.U. after    9 cycles
 SCF Done:  E(RHF) =  -228.921729809     A.U. after    8 cycles
 Optimization completed.
    -- Stationary point found.

                         Standard orientation:
 ---------------------------------------------------------------------
 Center     Atomic      Atomic             Coordinates (Angstroms)
 Number     Number       Type             X           Y           Z
 ---------------------------------------------------------------------
      1          6           0       -0.568412   -0.502836    0.057836
      2          8           0       -1.818055    0.108269   -0.115841
      3          6           0        0.568414    0.502831   -0.057901
      4          8           0        1.818052   -0.108250    0.115895
      5          1           0       -0.482022   -1.249475   -0.723081
      6          1           0       -0.501744   -1.019638    1.011607
      7          1           0       -2.033478    0.616724    0.653501
      8          1           0        0.481960    1.249489    0.722989
      9          1           0        0.501825    1.019611   -1.011689
     10          1           0        2.033469   -0.616831   -0.653366
 ---------------------------------------------------------------------

 The electronic state is 1-A.
 Alpha  occ. eigenvalues --  -20.56396 -20.56396 -11.27340 -11.27277  -1.37723
 Alpha  occ. eigenvalues --   -1.36413  -0.99746  -0.85788  -0.71627  -0.69327
 Alpha  occ. eigenvalues --   -0.64350  -0.60969  -0.56815  -0.54058  -0.48566
 Alpha  occ. eigenvalues --   -0.47672  -0.42251
 Alpha virt. eigenvalues --    0.21505   0.22038   0.28805   0.30393   0.30501
 Alpha virt. eigenvalues --    0.35063   0.39743   0.43725   0.46036   0.73104
 Alpha virt. eigenvalues --    0.77077   0.81812   0.82583   0.90116   0.93451

 Mulliken charges:
               1
     1  C   -0.016567
     2  O   -0.738752
     3  C   -0.016560
     4  O   -0.738750
     5  H    0.158970
     6  H    0.156985
     7  H    0.439362
     8  H    0.158969
     9  H    0.156984
    10  H    0.439359
 Sum of Mulliken charges =   0.00000

 Dipole moment (field-independent basis, Debye):
    X=             -0.0000    Y=             -0.0002    Z=              0.0000  Tot=              0.0002
 Quadrupole moment (field-independent basis, Debye-Ang):
   XX=            -29.9664   YY=            -23.2268   ZZ=            -22.8695
   XY=             -2.7713   XZ=             -6.7823   YZ=              2.2565

 Normal termination of Gaussian 09 at Sun Apr 17 23:37:32 2022.
