 Gaussian 09, Revision D.01,
 Gaussian 09:  AM64L-G09RevD.01 24-Apr-2013

 ------------------------------------
 #n ZINDO(NSTATE=10) pop=full gfinput
 ------------------------------------

 ----------
 UV-spectra
 ----------
 Symbolic Z-matrix:
 Charge =  0 Multiplicity = 1

                         Standard orientation:
 ---------------------------------------------------------------------
 Center     Atomic      Atomic             Coordinates (Angstroms)
 Number     Number       Type             X           Y           Z
 ---------------------------------------------------------------------
      1          6           0       -0.332157   -1.454119    0.316027
      2          6           0       -1.581553   -0.701721    0.066066
      3          6           0        0.924660   -0.703436    0.098064
      4          8           0       -0.347654   -2.635240    0.678873
      5          6           0       -0.332234    1.454055    0.316220
      6          6           0        0.924620    0.703457    0.098004
      7          8           0       -0.347637    2.635229    0.678911
      8          6           0       -1.581653    0.701619    0.066546
      9          6           0       -2.774139   -1.396764   -0.158243
     10          6           0        2.133949    1.391728   -0.111514
     11          6           0       -2.774417    1.396636   -0.156911
     12          6           0        2.134100   -1.391628   -0.111149
     13          6           0       -3.958144   -0.696992   -0.393821
     14          6           0       -3.958308    0.696853   -0.393035
     15          6           0        3.338801   -0.691648   -0.311589
     16          6           0        3.338728    0.691828   -0.311804
     17          1           0       -2.765448   -2.498876   -0.140943
     18          1           0       -2.765929    2.498735   -0.138587
     19          1           0       -4.892341   -1.249449   -0.575715
     20          1           0       -4.892684    1.249293   -0.574056
     21          1           0        4.275268    1.248005   -0.467468
     22          1           0        4.275414   -1.247775   -0.467012
     23          8           0        2.083731   -2.763408   -0.131221
     24          1           0        2.988941   -3.094652   -0.234099
     25          8           0        2.083382    2.763499   -0.132241
     26          1           0        2.988682    3.094870   -0.233858
 ---------------------------------------------------------------------

 SCF Done:  E(RZINDO/S) =  -132.235696551     A.U. after   16 cycles

 Excitation energies and oscillator strengths:

 Excited State   1:      Singlet-A      2.6660 eV  465.06 nm  f=0.0004  <S**2>=0.000
      39 -> 46        -0.28790
      39 -> 49         0.23675
      40 -> 45         0.53978
      40 -> 50        -0.17131
      42 -> 45         0.12718
 This state for optimization and/or second-order correction.
 Total Energy, E(CIS) =  -132.137723757
 Copying the excited state density for this state as the 1-particle RhoCI density.

 Excited State   2:      Singlet-A      2.6969 eV  459.73 nm  f=0.0000  <S**2>=0.000
      39 -> 45         0.54233
      39 -> 50        -0.18245
      40 -> 46        -0.29030
      40 -> 49         0.23304

 Excited State   3:      Singlet-A      3.4930 eV  354.95 nm  f=0.2527  <S**2>=0.000
      44 -> 45         0.65434
      44 -> 47         0.18155

 Excited State   4:      Singlet-A      3.9640 eV  312.77 nm  f=0.0096  <S**2>=0.000
      41 -> 45        -0.20712
      43 -> 45         0.62094
      44 -> 46        -0.16440

 Excited State   5:      Singlet-A      4.1724 eV  297.15 nm  f=0.0662  <S**2>=0.000
      40 -> 45        -0.11889
      42 -> 45         0.57039
      42 -> 47        -0.23105
      43 -> 46         0.17825
      43 -> 48         0.21494

 Excited State   6:      Singlet-A      4.4694 eV  277.41 nm  f=0.0115  <S**2>=0.000
      41 -> 45         0.34577
      42 -> 46        -0.11730
      43 -> 45         0.23789
      43 -> 47        -0.10353
      44 -> 46         0.45095
      44 -> 48        -0.26566

 Excited State   7:      Singlet-A      4.8705 eV  254.56 nm  f=0.1193  <S**2>=0.000
      41 -> 46        -0.27718
      41 -> 48         0.17553
      43 -> 46         0.21158
      44 -> 45        -0.22908
      44 -> 47         0.46722
      44 -> 50         0.24150

 Excited State   8:      Singlet-A      5.0022 eV  247.86 nm  f=0.5522  <S**2>=0.000
      41 -> 45         0.50790
      42 -> 46        -0.15177
      42 -> 48        -0.14761
      44 -> 46        -0.38788
      44 -> 48         0.13731

 Excited State   9:      Singlet-A      5.1200 eV  242.16 nm  f=0.5973  <S**2>=0.000
      40 -> 45         0.11131
      41 -> 48         0.10256
      42 -> 45        -0.32744
      42 -> 47        -0.14636
      42 -> 50         0.15689
      43 -> 46         0.45977
      43 -> 48         0.26788
      44 -> 47        -0.13235

 Excited State  10:      Singlet-A      5.4548 eV  227.29 nm  f=0.2839  <S**2>=0.000
      41 -> 45         0.22861
      42 -> 46         0.43792
      42 -> 48         0.30250
      43 -> 45         0.17129
      43 -> 47         0.27746
      43 -> 50        -0.10645
      44 -> 48         0.13444

 The electronic state is 1-A.
 Alpha  occ. eigenvalues --   -1.74386  -1.66113  -1.65680  -1.55204  -1.53808
 Alpha  occ. eigenvalues --   -1.50226  -1.35366  -1.22806  -1.21861  -1.08889
 Alpha  occ. eigenvalues --   -1.05543  -0.99938  -0.99297  -0.91394  -0.87478
 Alpha  occ. eigenvalues --   -0.85039  -0.79271  -0.72139  -0.69734  -0.67536
 Alpha  occ. eigenvalues --   -0.66467  -0.63660  -0.60782  -0.59452  -0.59433
 Alpha  occ. eigenvalues --   -0.57699  -0.56881  -0.55896  -0.53784  -0.52762
 Alpha  occ. eigenvalues --   -0.51887  -0.49534  -0.49357  -0.48163  -0.47277
 Alpha  occ. eigenvalues --   -0.46846  -0.46456  -0.43453  -0.36794  -0.36125
 Alpha  occ. eigenvalues --   -0.35885  -0.34725  -0.34392  -0.31849
 Alpha virt. eigenvalues --   -0.05603  -0.01258   0.00348   0.01089   0.04758
 Alpha virt. eigenvalues --    0.04991   0.05860   0.08506   0.08988   0.09492
 Alpha virt. eigenvalues --    0.10550   0.10892   0.11782   0.12157   0.13453

 Mulliken charges:
               1
     1  C    0.329269
     2  C    0.013291
     3  C    0.007474
     4  O   -0.495359
     5  C    0.329257
     6  C    0.007481
     7  O   -0.495369
     8  C    0.013274
     9  C   -0.001766
    10  C    0.157747
    11  C   -0.001744
    12  C    0.157746
    13  C   -0.017100
    14  C   -0.017115
    15  C   -0.029626
    16  C   -0.029621
    17  H    0.054247
    18  H    0.054257
    19  H    0.038719
    20  H    0.038719
    21  H    0.042866
    22  H    0.042863
    23  O   -0.318389
    24  H    0.218638
    25  O   -0.318401
    26  H    0.218644
 Sum of Mulliken charges =  -0.00000

 Dipole moment (field-independent basis, Debye):
    X=              3.9622    Y=              0.0000    Z=             -3.3966  Tot=              5.2188
 N-N= 4.740863495818D+02 E-N= 0.000000000000D+00  KE=-1.142818754264D+03
 Orbital energies and kinetic energies (alpha):
                                 1                 2
   1         O                -1.743860        -14.307830
   2         O                -1.661125        -13.915602
   3         O                -1.656802        -13.768606
   4         O                -1.552036        -14.088203
   5         O                -1.538076        -13.716053
   6         O                -1.502259        -13.874102
   7         O                -1.353657        -13.840863

 Normal termination of Gaussian 09 at Tue Apr 12 00:35:50 2022.
