 Gaussian 09, Revision D.01,
 Gaussian 09:  AM64L-G09RevD.01 24-Apr-2013

 ----------------------------
 # hf/6-31G* Opt=modredundant
 ----------------------------

 -------------------------
 Optimisation de geometrie
 -------------------------
 Symbolic Z-matrix:
 Charge =  0 Multiplicity = 1

 SCF Done:  E(RHF) =  -267.958198111     A.U. after   12 cycles
 SCF Done:  E(RHF) =  -267.960852624     A.U. after   11 cycles
 SCF Done:  E(RHF) =  -267.960788267     A.U. after   10 cycles
 SCF Done:  E(RHF) =  -267.961092982     A.U. after    9 cycles
 SCF Done:  E(RHF) =  -267.961108453     A.U. after    9 cycles
 SCF Done:  E(RHF) =  -267.961114470     A.U. after    9 cycles
 SCF Done:  E(RHF) =  -267.961115949     A.U. after    9 cycles
 SCF Done:  E(RHF) =  -267.961116115     A.U. after    8 cycles
 Optimization completed.
    -- Stationary point found.
 SCF Done:  E(RHF) =  -267.958417448     A.U. after   10 cycles
 SCF Done:  E(RHF) =  -267.960177357     A.U. after   10 cycles
 Optimization completed.
 SCF Done:  E(RHF) =  -267.958087260     A.U. after   12 cycles
 SCF Done:  E(RHF) =  -267.959967079     A.U. after   11 cycles
 SCF Done:  E(RHF) =  -267.960602825     A.U. after   11 cycles
 SCF Done:  E(RHF) =  -267.960780511     A.U. after   10 cycles
 SCF Done:  E(RHF) =  -267.960826415     A.U. after   10 cycles
 SCF Done:  E(RHF) =  -267.960828669     A.U. after    8 cycles
    -- Stationary point found.
 SCF Done:  E(RHF) =  -267.959166874     A.U. after   11 cycles
 SCF Done:  E(RHF) =  -267.961067665     A.U. after   10 cycles
 SCF Done:  E(RHF) =  -267.961115429     A.U. after   10 cycles
 SCF Done:  E(RHF) =  -267.961116081     A.U. after    8 cycles
 Optimization completed.
    -- Stationary point found.

                         Standard orientation:
 ---------------------------------------------------------------------
 Center     Atomic      Atomic             Coordinates (Angstroms)
 Number     Number       Type             X           Y           Z
 ---------------------------------------------------------------------
      1          6           0        1.287596    0.464193    0.174698
      2          8           0        1.324746   -0.923131   -0.080775
      3          6           0       -0.026218    1.023471   -0.347268
      4          6           0       -1.260674    0.398965    0.301966
      5          8           0       -1.513367   -0.903776   -0.136651
      6          1           0        2.123746    0.957762   -0.314145
      7          1           0        1.370049    0.649768    1.243994
      8          1           0        2.120943   -1.297414    0.269202
      9          1           0       -0.080986    0.876990   -1.421470
     10          1           0       -0.027882    2.095556   -0.162046
     11          1           0       -2.137760    0.980964    0.047392
     12          1           0       -1.157943    0.430838    1.387532
     13          1           0       -0.705428   -1.398985   -0.087425
 ---------------------------------------------------------------------

 The electronic state is 1-A.
 Alpha  occ. eigenvalues --  -20.57560 -20.53196 -11.28369 -11.26201 -11.22109
 Alpha  occ. eigenvalues --   -1.38135  -1.34258  -1.04771  -0.91432  -0.81276
 Alpha  occ. eigenvalues --   -0.72547  -0.69046  -0.62980  -0.60526  -0.60019
 Alpha  occ. eigenvalues --   -0.56144  -0.52510  -0.51233  -0.46639  -0.44463
 Alpha  occ. eigenvalues --   -0.41831
 Alpha virt. eigenvalues --    0.20915   0.25589   0.28873   0.29494   0.31386
 Alpha virt. eigenvalues --    0.32094   0.32691   0.35059   0.38966   0.39849
 Alpha virt. eigenvalues --    0.45433   0.46011   0.73319   0.73708   0.79345

 Mulliken charges:
               1
     1  C   -0.002301
     2  O   -0.758404
     3  C   -0.365220
     4  C    0.026997
     5  O   -0.763147
     6  H    0.153861
     7  H    0.144798
     8  H    0.448570
     9  H    0.188273
    10  H    0.159432
    11  H    0.165116
    12  H    0.128363
    13  H    0.473661
 Sum of Mulliken charges =  -0.00000

 Dipole moment (field-independent basis, Debye):
    X=              3.2414    Y=              1.4775    Z=              1.2661  Tot=              3.7806
 Quadrupole moment (field-independent basis, Debye-Ang):
   XX=            -30.6448   YY=            -30.1922   ZZ=            -31.8169
   XY=             -4.4868   XZ=              0.9614   YZ=             -1.2298

 Normal termination of Gaussian 09 at Mon Apr 18 00:55:36 2022.
