 Gaussian 09, Revision D.01,
 Gaussian 09:  AM64L-G09RevD.01 24-Apr-2013

 ---------------
 #n AM1 Opt freq
 ---------------

 -------------------------
 Optimisation de geometrie
 -------------------------
 Symbolic Z-matrix:
 Charge =  0 Multiplicity = 1

 SCF Done:  E(RAM1) =  0.363253410814E-02 A.U. after   12 cycles
 SCF Done:  E(RAM1) =  0.765587473538E-03 A.U. after   11 cycles
 SCF Done:  E(RAM1) =  0.303348936825E-03 A.U. after   10 cycles
 SCF Done:  E(RAM1) =  0.234574094549E-03 A.U. after   10 cycles
 SCF Done:  E(RAM1) =  0.211669642084E-03 A.U. after   10 cycles
 SCF Done:  E(RAM1) =  0.172017159429E-03 A.U. after   11 cycles
 SCF Done:  E(RAM1) =  0.154263237391E-03 A.U. after   11 cycles
 SCF Done:  E(RAM1) =  0.145438922630E-03 A.U. after   10 cycles
 SCF Done:  E(RAM1) =  0.145164939653E-03 A.U. after    9 cycles
 Optimization completed.
    -- Stationary point found.
 Normal termination of Gaussian 09 at Sat Apr 16 11:42:43 2022.

 -------------------------------------------------------------
 #N Geom=AllCheck Guess=TCheck SCRF=Check GenChk RAM1/ZDO Freq
 -------------------------------------------------------------

 Structure from the checkpoint file:  "1-but-ene-opt.chk"
 -------------------------
 Optimisation de geometrie
 -------------------------
 Charge =  0 Multiplicity = 1

                         Standard orientation:
 ---------------------------------------------------------------------
 Center     Atomic      Atomic             Coordinates (Angstroms)
 Number     Number       Type             X           Y           Z
 ---------------------------------------------------------------------
      1          6           0        0.687590   -0.356906    0.237930
      2          6           0        1.878870    0.036653   -0.205605
      3          6           0       -0.516031    0.510297    0.264926
      4          6           0       -1.739860   -0.211543   -0.243744
      5          1           0        0.533714   -1.376829    0.629078
      6          1           0        2.754383   -0.625264   -0.198538
      7          1           0        2.063120    1.042655   -0.604776
      8          1           0       -0.693062    0.842148    1.325238
      9          1           0       -0.347130    1.437851   -0.345315
     10          1           0       -2.629807    0.461436   -0.198446
     11          1           0       -1.594798   -0.535202   -1.302484
     12          1           0       -1.949833   -1.117801    0.374200
 ---------------------------------------------------------------------

 SCF Done:  E(RAM1) =  0.145164939283E-03 A.U. after    2 cycles

 The electronic state is 1-A.
 Alpha  occ. eigenvalues --   -1.32721  -1.13481  -0.88711  -0.75148  -0.58688
 Alpha  occ. eigenvalues --   -0.55428  -0.53886  -0.47843  -0.47009  -0.43446
 Alpha  occ. eigenvalues --   -0.42606  -0.36768
 Alpha virt. eigenvalues --    0.05067   0.14011   0.14874   0.15846   0.16594
 Alpha virt. eigenvalues --    0.16776   0.17953   0.18064   0.18733   0.19089
 Alpha virt. eigenvalues --    0.20870   0.21737

 Mulliken charges:
               1
     1  C   -0.159580
     2  C   -0.226169
     3  C   -0.136021
     4  C   -0.207584
     5  H    0.118428
     6  H    0.110593
     7  H    0.109950
     8  H    0.086531
     9  H    0.083036
    10  H    0.072616
    11  H    0.075850
    12  H    0.072352
 Sum of Mulliken charges =  -0.00000

 Dipole moment (field-independent basis, Debye):
    X=             -0.2103    Y=              0.0271    Z=              0.0541  Tot=              0.2188
 N-N= 7.955480485114D+01 E-N=-1.284038937519D+02  KE=-1.479070998470D+01
  Exact polarizability:  47.420   2.036  31.030  -8.167  -4.327  24.156
 Approx polarizability:  30.194   2.585  19.713  -6.229  -3.262  15.755
 Calling FoFJK, ICntrl=    100127 FMM=F ISym2X=0 I1Cent= 0 IOpClX= 0 NMat=1 NMatS=1 NMatT=0.
 Full mass-weighted force constant matrix:
 Low frequencies ---   -2.9197   -1.5797   -0.0088    0.0352    0.1142    5.0035
 Low frequencies ---   56.5811  155.6450  338.9520
 Diagonal vibrational polarizability:
        0.4366589       0.4937741       2.0417481
 Harmonic frequencies (cm**-1), IR intensities (KM/Mole), Raman scattering

                      1                      2                      3
                      A                      A                      A
 Frequencies --     56.5770               155.6449               338.9520
 Red. masses --      2.0839                 1.0736                 1.9379
 Frc consts  --      0.0039                 0.0153                 0.1312
 IR Inten    --      0.0279                 0.0269                 0.5216

                      4                      5                      6
                      A                      A                      A
 Frequencies --    457.7197               611.8091               836.0572
 Red. masses --      1.9887                 1.4150                 1.1608
 Frc consts  --      0.2455                 0.3121                 0.4780
 IR Inten    --      0.9469                 4.3692                 3.6136

                      7                      8                      9
                      A                      A                      A
 Frequencies --    954.6805               959.6959              1020.1094
 Red. masses --      1.1933                 1.4878                 1.2270
 Frc consts  --      0.6408                 0.8073                 0.7523
 IR Inten    --      9.5327                 4.0920                 3.4495

                     10                     11                     12
                      A                      A                      A
 Frequencies --   1051.3223              1107.6426              1193.3757
 Red. masses --      1.3163                 1.4729                 1.2300
 Frc consts  --      0.8572                 1.0647                 1.0320
 IR Inten    --     51.6798                 2.2352                 0.1096

                     13                     14                     15
                      A                      A                      A
 Frequencies --   1227.5381              1269.9524              1305.6221
 Red. masses --      2.0208                 1.3242                 1.3290
 Frc consts  --      1.7941                 1.2583                 1.3348
 IR Inten    --      0.4896                 0.0223                 0.1699

                     16                     17                     18
                      A                      A                      A
 Frequencies --   1386.9161              1392.6809              1395.2017
 Red. masses --      1.3492                 1.0735                 1.0785
 Frc consts  --      1.5291                 1.2267                 1.2369
 IR Inten    --      0.1774                 1.0986                 1.4152

                     19                     20                     21
                      A                      A                      A
 Frequencies --   1398.0802              1434.9116              1448.1743
 Red. masses --      1.1495                 1.3104                 1.9982
 Frc consts  --      1.3238                 1.5896                 2.4690
 IR Inten    --      0.7157                 0.1158                 1.7501

                     22                     23                     24
                      A                      A                      A
 Frequencies --   1866.2993              3004.0513              3061.3755
 Red. masses --      8.7021                 1.0879                 1.0833
 Frc consts  --     17.8582                 5.7844                 5.9821
 IR Inten    --      0.8362                 0.6094                 0.1191

                     25                     26                     27
                      A                      A                      A
 Frequencies --   3065.0103              3081.7844              3154.9235
 Red. masses --      1.0921                 1.0545                 1.0804
 Frc consts  --      6.0449                 5.9006                 6.3359
 IR Inten    --      0.4749                 0.5948                 5.9805

                     28                     29                     30
                      A                      A                      A
 Frequencies --   3157.7523              3181.2123              3215.9796
 Red. masses --      1.0291                 1.1014                 1.0539
 Frc consts  --      6.0457                 6.5674                 6.4220
 IR Inten    --      0.1457                12.1932                25.9867

 - Thermochemistry -
 -------------------
 Temperature   298.150 Kelvin.  Pressure   1.00000 Atm.
 Atom     1 has atomic number  6 and mass  12.00000

 Molecular mass:    56.06260 amu.
 Principal axes and moments of inertia in atomic units:
                           1         2         3
     Eigenvalues --    73.17845 431.97037 453.20664
           X            0.99999   0.00384  -0.00388
           Y           -0.00419   0.99545  -0.09520
           Z            0.00350   0.09522   0.99545
 This molecule is an asymmetric top.
 Rotational symmetry number  1.
 Rotational temperatures (Kelvin)      1.18360     0.20051     0.19111
 Rotational constants (GHZ):          24.66220     4.17793     3.98216
 Zero-point vibrational energy     285854.0 (Joules/Mol)
                                   68.32074 (Kcal/Mol)
 Warning -- explicit consideration of   5 degrees of freedom as
           vibrations may cause significant error
 Vibrational temperatures:     81.40   223.94   487.68   658.56   880.26
          (Kelvin)           1202.90  1373.57  1380.79  1467.71  1512.62
                             1593.65  1717.00  1766.15  1827.18  1878.50
                             1995.46  2003.75  2007.38  2011.52  2064.52
                             2083.60  2685.19  4322.15  4404.63  4409.86
                             4433.99  4539.23  4543.30  4577.05  4627.07

 Zero-point correction=                           0.108876 (Hartree/Particle)
 Thermal correction to Energy=                    0.114292
 Thermal correction to Enthalpy=                  0.115236
 Thermal correction to Gibbs Free Energy=         0.080726
 Sum of electronic and zero-point Energies=              0.109021
 Sum of electronic and thermal Energies=                 0.114437
 Sum of electronic and thermal Enthalpies=               0.115381
 Sum of electronic and thermal Free Energies=            0.080872

                     E (Thermal)             CV                S
                      KCal/Mol        Cal/Mol-Kelvin    Cal/Mol-Kelvin
 Total                   71.719             17.524             72.631
 Electronic               0.000              0.000              0.000
 Translational            0.889              2.981             37.993
 Rotational               0.889              2.981             24.175
 Vibrational             69.942             11.562             10.463
 Vibration     1          0.596              1.975              4.573
 Vibration     2          0.620              1.896              2.602
 Vibration     3          0.719              1.598              1.217
 Vibration     4          0.816              1.344              0.773
 Vibration     5          0.971              1.007              0.430

 Normal termination of Gaussian 09 at Sat Apr 16 11:42:45 2022.
