 Gaussian 09, Revision D.01,
 Gaussian 09:  AM64L-G09RevD.01 24-Apr-2013

 ----------
 #n PM6 Opt
 ----------

 -------------------------
 Optimisation de geometrie
 -------------------------
 Symbolic Z-matrix:
 Charge =  0 Multiplicity = 1

 SCF Done:  E(RPM6) =  0.908385886246E-01 A.U. after   32 cycles
 SCF Done:  E(RPM6) =  0.183888824452     A.U. after   23 cycles
 SCF Done:  E(RPM6) =  0.674121278439E-01 A.U. after   19 cycles
 SCF Done:  E(RPM6) =  0.514252061994E-01 A.U. after   20 cycles
 SCF Done:  E(RPM6) =  0.459634150388E-01 A.U. after   20 cycles
 SCF Done:  E(RPM6) =  0.403099907180E-01 A.U. after   20 cycles
 SCF Done:  E(RPM6) =  0.347069864329E-01 A.U. after   21 cycles
 SCF Done:  E(RPM6) =  0.422697319163E-01 A.U. after   21 cycles
 SCF Done:  E(RPM6) =  0.316716394905E-01 A.U. after   16 cycles
 SCF Done:  E(RPM6) =  0.271706415556E-01 A.U. after   20 cycles
 SCF Done:  E(RPM6) = -0.343172254361E-02 A.U. after   14 cycles
 SCF Done:  E(RPM6) = -0.343323347897E-02 A.U. after   14 cycles
 SCF Done:  E(RPM6) = -0.343466133199E-02 A.U. after   13 cycles
 SCF Done:  E(RPM6) = -0.343580496792E-02 A.U. after   13 cycles
 SCF Done:  E(RPM6) = -0.343677598266E-02 A.U. after   13 cycles
 SCF Done:  E(RPM6) = -0.343738604124E-02 A.U. after   13 cycles
 SCF Done:  E(RPM6) = -0.343768726407E-02 A.U. after   13 cycles
 SCF Done:  E(RPM6) = -0.343785202722E-02 A.U. after   12 cycles
 SCF Done:  E(RPM6) = -0.343793244247E-02 A.U. after   12 cycles
 SCF Done:  E(RPM6) = -0.343796422840E-02 A.U. after   10 cycles
 Optimization completed.
    -- Stationary point found.

                         Standard orientation:
 ---------------------------------------------------------------------
 Center     Atomic      Atomic             Coordinates (Angstroms)
 Number     Number       Type             X           Y           Z
 ---------------------------------------------------------------------
      1          8           0       -0.016123   -1.420931    0.897850
      2          8           0       -1.897265    0.446563   -1.886990
      3          6           0       -0.867869   -2.200850    0.242884
      4          6           0       -0.421556   -3.537961   -0.065475
      5          6           0       -1.215548   -4.376510   -0.791386
      6          6           0       -2.502427   -3.948447   -1.254957
      7          6           0       -3.332608   -4.821453   -2.021844
      8          6           0       -4.572151   -4.414143   -2.450046
      9          6           0       -5.040367   -3.109233   -2.124904
     10          6           0       -4.262229   -2.249611   -1.390982
     11          6           0       -2.959769   -2.641233   -0.935692
     12          6           0       -2.124999   -1.761207   -0.168754
     13          6           0       -2.632782   -0.427325    0.189186
     14          6           0       -2.586672    0.634629   -0.700652
     15          6           0       -3.190986    1.898518   -0.430597
     16          6           0       -3.810585    2.095616    0.775886
     17          6           0       -3.844739    1.054713    1.755870
     18          6           0       -4.468561    1.263712    3.027729
     19          6           0       -4.500785    0.260328    3.961903
     20          6           0       -3.912424   -1.006551    3.673271
     21          6           0       -3.311173   -1.235113    2.462526
     22          6           0       -3.257560   -0.206380    1.465372
     23          1           0        0.550857   -3.848579    0.311574
     24          1           0       -0.887464   -5.388375   -1.028926
     25          1           0       -2.962403   -5.817643   -2.258017
     26          1           0       -5.209575   -5.072642   -3.033192
     27          1           0       -6.028562   -2.808395   -2.468094
     28          1           0       -4.624056   -1.253443   -1.139171
     29          1           0       -3.147065    2.684617   -1.180086
     30          1           0       -4.914879    2.234328    3.235126
     31          1           0       -4.971052    0.410444    4.931327
     32          1           0       -3.948829   -1.786177    4.432872
     33          1           0       -2.857478   -2.202584    2.234157
     34          1           0        0.666695   -2.093634    1.912484
     35          1           0       -2.074949    1.183889   -2.521463
     36         17           0        1.605146   -2.688849    2.782939
     37          8           0        0.314613    1.019562    1.335008
     38          7           0        2.913032    0.316673   -0.049494
     39          7           0       -1.295802    5.351909   -0.529824
     40          6           0        4.325541    0.600920   -0.589259
     41          6           0        4.924966    1.834097    0.104711
     42          6           0        4.063381    2.195154    1.331031
     43          6           0        2.671688    2.640632    0.850009
     44          6           0        2.104367    1.634206   -0.174320
     45          6           0        3.907926    0.920381    2.203511
     46          6           0        3.014623   -0.077066    1.429486
     47          6           0        3.351129    1.227000    3.570544
     48          6           0        2.952026    0.292746    4.429806
     49          6           0        2.258336   -0.804511   -0.854979
     50          6           0        3.202714   -1.900206   -1.261020
     51          6           0        3.740137   -1.909127   -2.559559
     52          6           0        4.592934   -2.941465   -2.956013
     53          6           0        4.913246   -3.970917   -2.063757
     54          6           0        4.369997   -3.969526   -0.776029
     55          6           0        3.513849   -2.939727   -0.374359
     56          6           0        0.562348    1.446750    0.010337
     57          6           0       -0.100169    2.801383   -0.204335
     58          6           0       -0.259114    3.344674   -1.525196
     59          6           0        0.115691    2.664919   -2.725773
     60          6           0       -0.060986    3.256891   -3.951447
     61          6           0       -0.625420    4.562937   -4.054684
     62          6           0       -1.017917    5.239403   -2.929536
     63          6           0       -0.851704    4.636087   -1.638064
     64          6           0       -1.161609    4.796895    0.670816
     65          6           0       -0.560472    3.514652    0.876678
     66          1           0        4.960191   -0.297353   -0.408668
     67          1           0        4.279484    0.739927   -1.689056
     68          1           0        5.970085    1.631782    0.407361
     69          1           0        4.977630    2.692243   -0.591668
     70          1           0        4.547876    3.008520    1.914037
     71          1           0        2.699955    3.651609    0.406977
     72          1           0        1.982316    2.707914    1.725213
     73          1           0        4.919870    0.462134    2.353349
     74          1           0        1.965501   -0.080201    1.855907
     75          1           0        3.400197   -1.114332    1.520988
     76          1           0        3.309181    2.286148    3.826665
     77          1           0        2.955162   -0.772805    4.223651
     78          1           0        2.562680    0.521542    5.412848
     79          1           0        3.481093   -1.125508   -3.268324
     80          1           0        5.003091   -2.950033   -3.965204
     81          1           0        5.576261   -4.776853   -2.376143
     82          1           0        4.603359   -4.777739   -0.081505
     83          1           0        3.075660   -2.964383    0.629395
     84          1           0        0.137046    0.695362   -0.705954
     85          1           0        0.519162    1.655294   -2.657801
     86          1           0        0.220551    2.738253   -4.867593
     87          1           0       -0.743795    5.006013   -5.043567
     88          1           0       -1.463632    6.235567   -2.977319
     89          1           0       -1.533369    5.369333    1.531287
     90          1           0       -0.490429    3.095244    1.886434
     91          1           0       -0.259148    0.131338    1.317740
     92          1           0        2.277465    2.019662   -1.213610
     93          1           0        1.400687   -1.243267   -0.221150
     94          1           0        1.750786   -0.380011   -1.748680
     95          1           0       -4.284358    3.049535    1.006495
 ---------------------------------------------------------------------

 The electronic state is 1-A.
 Alpha  occ. eigenvalues --   -1.24890  -1.18447  -1.12380  -1.12278  -1.10500
 Alpha  occ. eigenvalues --   -1.10268  -1.09718  -1.09485  -1.08279  -1.06090
 Alpha  occ. eigenvalues --   -1.04668  -1.04386  -1.02939  -1.01600  -1.00948
 Alpha  occ. eigenvalues --   -0.99585  -0.99339  -0.97701  -0.97098  -0.96243
 Alpha  occ. eigenvalues --   -0.96043  -0.95624  -0.94636  -0.92226  -0.91499
 Alpha  occ. eigenvalues --   -0.90785  -0.90210  -0.89932  -0.88000  -0.85291
 Alpha  occ. eigenvalues --   -0.84837  -0.83730  -0.82564  -0.80870  -0.80227
 Alpha  occ. eigenvalues --   -0.80044  -0.79216  -0.77901  -0.77582  -0.76715
 Alpha  occ. eigenvalues --   -0.75803  -0.75216  -0.73288  -0.71458  -0.69824
 Alpha  occ. eigenvalues --   -0.68685  -0.68140  -0.67664  -0.66847  -0.66450
 Alpha  occ. eigenvalues --   -0.66352  -0.64579  -0.63852  -0.63633  -0.63275
 Alpha  occ. eigenvalues --   -0.62487  -0.61370  -0.60143  -0.59985  -0.59827
 Alpha  occ. eigenvalues --   -0.58781  -0.57985  -0.57893  -0.57604  -0.57248
 Alpha  occ. eigenvalues --   -0.57061  -0.56729  -0.56596  -0.56138  -0.55312
 Alpha  occ. eigenvalues --   -0.54966  -0.54753  -0.54460  -0.54237  -0.54083
 Alpha  occ. eigenvalues --   -0.53585  -0.53455  -0.52777  -0.52650  -0.52490
 Alpha  occ. eigenvalues --   -0.52075  -0.52050  -0.52003  -0.51542  -0.51424
 Alpha  occ. eigenvalues --   -0.50742  -0.50498  -0.50306  -0.50057  -0.49734
 Alpha  occ. eigenvalues --   -0.49279  -0.48454  -0.48147  -0.47811  -0.47579
 Alpha  occ. eigenvalues --   -0.47337  -0.47157  -0.46789  -0.46596  -0.46260
 Alpha  occ. eigenvalues --   -0.46123  -0.46027  -0.45699  -0.44812  -0.44477
 Alpha  occ. eigenvalues --   -0.44262  -0.43766  -0.43385  -0.43168  -0.42284
 Alpha  occ. eigenvalues --   -0.41840  -0.41616  -0.40713  -0.40369  -0.38968
 Alpha  occ. eigenvalues --   -0.38934  -0.38225  -0.37931  -0.37816  -0.37655
 Alpha  occ. eigenvalues --   -0.37464  -0.37381  -0.36936  -0.36431  -0.35919
 Alpha  occ. eigenvalues --   -0.35539  -0.35416  -0.32642  -0.31352  -0.30141
 Alpha  occ. eigenvalues --   -0.28218
 Alpha virt. eigenvalues --   -0.03855  -0.02517  -0.02362  -0.00927  -0.00450
 Alpha virt. eigenvalues --    0.00184   0.00889   0.01224   0.01301   0.03024
 Alpha virt. eigenvalues --    0.03701   0.04650   0.04707   0.05855   0.06222

 Mulliken charges:
               1
     1  O   -0.784843
     2  O   -0.489369
     3  C    0.431956
     4  C   -0.343546
     5  C   -0.047750
     6  C   -0.121160
     7  C   -0.102844
     8  C   -0.206379
     9  C   -0.104846
    10  C   -0.210506
    11  C    0.154356
    12  C   -0.264921
    13  C   -0.055786
    14  C    0.248862
    15  C   -0.303651
    16  C   -0.082288
    17  C   -0.053735
    18  C   -0.148224
    19  C   -0.154410
    20  C   -0.134317
    21  C   -0.149659
    22  C    0.061750
    23  H    0.174446
    24  H    0.137146
    25  H    0.136842
    26  H    0.143624
    27  H    0.136253
    28  H    0.159665
    29  H    0.164780
    30  H    0.143263
    31  H    0.144079
    32  H    0.147146
    33  H    0.171670
    34  H    0.371941
    35  H    0.320849
    36  Cl  -0.546753
    37  O   -0.604597
    38  N    0.139304
    39  N   -0.319409
    40  C   -0.208327
    41  C   -0.311479
    42  C   -0.073296
    43  C   -0.313085
    44  C   -0.071454
    45  C   -0.105122
    46  C   -0.231137
    47  C   -0.152571
    48  C   -0.305627
    49  C   -0.304492
    50  C    0.002004
    51  C   -0.185437
    52  C   -0.129720
    53  C   -0.141552
    54  C   -0.122569
    55  C   -0.163428
    56  C    0.141289
    57  C    0.012652
    58  C   -0.102675
    59  C   -0.164954
    60  C   -0.144960
    61  C   -0.137641
    62  C   -0.146452
    63  C    0.138758
    64  C    0.045099
    65  C   -0.230277
    66  H    0.177428
    67  H    0.158323
    68  H    0.156059
    69  H    0.153430
    70  H    0.141497
    71  H    0.153756
    72  H    0.192239
    73  H    0.143464
    74  H    0.238036
    75  H    0.180085
    76  H    0.141235
    77  H    0.174884
    78  H    0.154388
    79  H    0.146229
    80  H    0.149129
    81  H    0.152229
    82  H    0.157155
    83  H    0.184962
    84  H    0.161405
    85  H    0.148068
    86  H    0.151263
    87  H    0.154290
    88  H    0.175768
    89  H    0.169122
    90  H    0.200267
    91  H    0.394337
    92  H    0.148041
    93  H    0.271532
    94  H    0.172857
    95  H    0.146034
 Sum of Mulliken charges =  -0.00000

 Dipole moment (field-independent basis, Debye):
    X=              9.4138    Y=              5.7555    Z=             -5.5736  Tot=             12.3617
 N-N= 3.793653565885D+03 E-N=-7.208666811416D+03  KE=-2.089711794094D+02
 1\1\GINC-GTX1050TI\FOpt\RPM6\ZDO\C46H43Cl1N2O3\MVEROT\18-Apr-2022\0\\#
 n PM6 Opt\\Optimisation de geometrie\\0,1\O,-2.7816403516,-5.549606450
 3,-3.6820134076\O,-0.966986022,-8.9340565808,-3.8666682916\C,-1.632823
 7907,-5.4795270343,-4.3438549967\C,-1.6192247269,-4.6747524042,-5.5414
 774883\C,-0.4940271336,-4.6054752656,-6.3093741546\C,0.6901716521,-5.3
 235858169,-5.9403439856\C,1.8672130338,-5.2592412829,-6.7465014694\C,3
 .0055236087,-5.9348911147,-6.3811630135\C,3.0180082015,-6.7062378461,-
 5.1842495744\C,1.9002417993,-6.7866935607,-4.3922804678\C,0.6929973852
 ,-6.0998269911,-4.749821765\C,-0.4903073351,-6.1689659961,-3.940816288

 Normal termination of Gaussian 09 at Mon Apr 18 11:08:41 2022.
