 Gaussian 09, Revision D.01,
 Gaussian 09:  AM64L-G09RevD.01 24-Apr-2013

 ----------
 #n PM3 Opt
 ----------

 -------------------------
 Optimisation de geometrie
 -------------------------
 Symbolic Z-matrix:
 Charge =  0 Multiplicity = 1

 SCF Done:  E(RPM3) = -0.156821350123     A.U. after   13 cycles
 SCF Done:  E(RPM3) = -0.159351489888     A.U. after   11 cycles
 SCF Done:  E(RPM3) = -0.159561702054     A.U. after   11 cycles
 SCF Done:  E(RPM3) = -0.159636850701     A.U. after   11 cycles
 SCF Done:  E(RPM3) = -0.159665167041     A.U. after   11 cycles
 SCF Done:  E(RPM3) = -0.159676142814     A.U. after   11 cycles
 SCF Done:  E(RPM3) = -0.159680307209     A.U. after   10 cycles
 SCF Done:  E(RPM3) = -0.159683376513     A.U. after   10 cycles
 SCF Done:  E(RPM3) = -0.159688235929     A.U. after   10 cycles
 SCF Done:  E(RPM3) = -0.159690131306     A.U. after   10 cycles
 SCF Done:  E(RPM3) = -0.159691327112     A.U. after   10 cycles
 SCF Done:  E(RPM3) = -0.159691878535     A.U. after   10 cycles
 SCF Done:  E(RPM3) = -0.159691912606     A.U. after    9 cycles
 Optimization completed.
    -- Stationary point found.

                         Standard orientation:
 ---------------------------------------------------------------------
 Center     Atomic      Atomic             Coordinates (Angstroms)
 Number     Number       Type             X           Y           Z
 ---------------------------------------------------------------------
      1          6           0        1.013909   -0.360350    0.299607
      2          8           0        2.301988   -0.022974   -0.164744
      3          6           0        0.039219    0.676191   -0.255532
      4          6           0       -1.368279    0.479161    0.300101
      5          8           0       -1.923367   -0.674539   -0.289861
      6          1           0        1.008204   -0.354751    1.408184
      7          1           0        0.733328   -1.380492   -0.026652
      8          1           0        2.859016   -0.763779    0.030061
      9          1           0        0.028389    0.633049   -1.363112
     10          1           0        0.382846    1.698197    0.001060
     11          1           0       -1.997265    1.360848    0.067049
     12          1           0       -1.349361    0.371935    1.403395
     13          1           0       -2.803228   -0.754915    0.051795
 ---------------------------------------------------------------------

 The electronic state is 1-A.
 Alpha  occ. eigenvalues --   -1.46259  -1.37147  -1.16600  -0.90705  -0.77348
 Alpha  occ. eigenvalues --   -0.67655  -0.64940  -0.60408  -0.57984  -0.54258
 Alpha  occ. eigenvalues --   -0.52836  -0.47641  -0.46550  -0.45088  -0.40527
 Alpha  occ. eigenvalues --   -0.39726
 Alpha virt. eigenvalues --    0.11369   0.12538   0.13343   0.14162   0.14302
 Alpha virt. eigenvalues --    0.15049   0.15316   0.16565   0.17635   0.18050
 Alpha virt. eigenvalues --    0.20507   0.21085

 Mulliken charges:
               1
     1  C    0.075468
     2  O   -0.314027
     3  C   -0.127328
     4  C    0.077337
     5  O   -0.312822
     6  H    0.019221
     7  H    0.033262
     8  H    0.185013
     9  H    0.073189
    10  H    0.063495
    11  H    0.020841
    12  H    0.021587
    13  H    0.184765
 Sum of Mulliken charges =   0.00000

 Dipole moment (field-independent basis, Debye):
    X=             -1.0803    Y=             -0.3591    Z=              1.5266  Tot=              1.9044
 N-N= 1.343142228628D+02 E-N=-2.235369694455D+02  KE=-2.249739111600D+01
 1\1\GINC-GTX1080DELTA\FOpt\RPM3\ZDO\C3H8O2\MVEROT\17-Apr-2022\0\\#n PM
 3 Opt\\Optimisation de geometrie\\0,1\C,1.3288228907,2.2759856024,1.27
 10714787\O,0.0195468505,2.0224171715,0.8127146852\C,2.0810635728,0.946
 7937088,1.2713868342\C,3.4727815356,1.0881642627,1.8810886696\O,4.2876
 031069,1.7953335256,0.9737968073\H,1.2854782498,2.7061470513,2.2918993
 603\H,1.8357679935,3.0162552089,0.6223271133\H,-0.3731979431,2.8676345
 112,0.644250839\H,2.148564668,0.5478691546,0.2393919041\H,1.5152025286
 ,0.1888452675,1.8490813702\H,3.9071198601,0.0878877566,2.0762983586\H,
 3.4298751965,1.6223953793,2.8515888249\H,5.1486514903,1.8429013996,1.3

 Normal termination of Gaussian 09 at Sun Apr 17 23:35:55 2022.
