 Gaussian 09, Revision D.01,
 Gaussian 09:  AM64L-G09RevD.01 24-Apr-2013

 -----------------------
 #n PM6 Opt=modredundant
 -----------------------

 -------------------------
 Optimisation de geometrie
 -------------------------
 Symbolic Z-matrix:
 Charge =  0 Multiplicity = 1

 SCF Done:  E(RPM6) =  0.767213571602E-01 A.U. after   16 cycles
 SCF Done:  E(RPM6) =  0.763151345591E-01 A.U. after   12 cycles
 SCF Done:  E(RPM6) =  0.762757009031E-01 A.U. after   12 cycles
 SCF Done:  E(RPM6) =  0.762730981594E-01 A.U. after   11 cycles
 Optimization completed.
    -- Stationary point found.
 SCF Done:  E(RPM6) =  0.760223657305E-01 A.U. after   15 cycles
 SCF Done:  E(RPM6) =  0.757937805827E-01 A.U. after   13 cycles
 SCF Done:  E(RPM6) =  0.757865228832E-01 A.U. after   12 cycles
 Optimization completed.
 SCF Done:  E(RPM6) =  0.758992217410E-01 A.U. after   15 cycles
 SCF Done:  E(RPM6) =  0.756583127391E-01 A.U. after   13 cycles
 SCF Done:  E(RPM6) =  0.756568833252E-01 A.U. after   11 cycles
 SCF Done:  E(RPM6) =  0.784502405313E-01 A.U. after   12 cycles
 SCF Done:  E(RPM6) =  0.783698894132E-01 A.U. after   14 cycles
 SCF Done:  E(RPM6) =  0.779115693707E-01 A.U. after   13 cycles
 SCF Done:  E(RPM6) =  0.779082562350E-01 A.U. after   11 cycles
 SCF Done:  E(RPM6) =  0.774716613029E-01 A.U. after   13 cycles
 SCF Done:  E(RPM6) =  0.770766318088E-01 A.U. after   13 cycles
 SCF Done:  E(RPM6) =  0.770737534620E-01 A.U. after   11 cycles
    -- Stationary point found.
 SCF Done:  E(RPM6) =  0.765624443417E-01 A.U. after   13 cycles
 SCF Done:  E(RPM6) =  0.762744925872E-01 A.U. after   13 cycles
 SCF Done:  E(RPM6) =  0.762730123284E-01 A.U. after   11 cycles
 Optimization completed.
    -- Stationary point found.

                         Standard orientation:
 ---------------------------------------------------------------------
 Center     Atomic      Atomic             Coordinates (Angstroms)
 Number     Number       Type             X           Y           Z
 ---------------------------------------------------------------------
      1          6           0        2.844664   -1.139435   -0.411842
      2          6           0        1.447705   -1.138416   -0.413512
      3          6           0        0.739783    0.006308   -0.008833
      4          6           0        1.453718    1.142267    0.410522
      5          6           0        2.850532    1.135214    0.411718
      6          6           0        3.549362   -0.004002   -0.000023
      7          6           0       -0.739784    0.006316    0.008718
      8          6           0       -1.453772    1.142263   -0.410609
      9          6           0       -2.850574    1.135202   -0.411640
     10          6           0       -3.549349   -0.004042    0.000119
     11          6           0       -2.844616   -1.139475    0.411830
     12          6           0       -1.447666   -1.138399    0.413516
     13          1           0       -0.907231   -2.023582    0.745675
     14          1           0        3.385575   -2.028454   -0.732175
     15          1           0        0.907285   -2.023583   -0.745741
     16          1           0        0.917417    2.028551    0.746286
     17          1           0        3.396116    2.019412    0.737373
     18          1           0        4.637287   -0.007287    0.001377
     19          1           0       -0.917503    2.028558   -0.746414
     20          1           0       -3.396217    2.019382   -0.737242
     21          1           0       -4.637271   -0.007306   -0.001153
     22          1           0       -3.385479   -2.028499    0.732219
 ---------------------------------------------------------------------

 The electronic state is 1-A.
 Alpha  occ. eigenvalues --   -1.10300  -1.08999  -0.99451  -0.96490  -0.94512
 Alpha  occ. eigenvalues --   -0.91288  -0.80659  -0.80538  -0.75876  -0.74030
 Alpha  occ. eigenvalues --   -0.66540  -0.61682  -0.58926  -0.57388  -0.55225
 Alpha  occ. eigenvalues --   -0.54522  -0.52925  -0.51947  -0.51891  -0.49439
 Alpha  occ. eigenvalues --   -0.47496  -0.46219  -0.44746  -0.43296  -0.43257
 Alpha  occ. eigenvalues --   -0.37477  -0.35793  -0.35708  -0.33068
 Alpha virt. eigenvalues --   -0.00695   0.01126   0.01202   0.02719   0.09171
 Alpha virt. eigenvalues --    0.10301   0.13800   0.15554   0.16646   0.16799
 Alpha virt. eigenvalues --    0.17638   0.17950   0.18512   0.18654   0.19027

 Mulliken charges:
               1
     1  C   -0.130110
     2  C   -0.170799
     3  C    0.017313
     4  C   -0.170679
     5  C   -0.130141
     6  C   -0.155819
     7  C    0.017315
     8  C   -0.170677
     9  C   -0.130142
    10  C   -0.155818
    11  C   -0.130114
    12  C   -0.170800
    13  H    0.152657
    14  H    0.144406
    15  H    0.152657
    16  H    0.152618
    17  H    0.144413
    18  H    0.146141
    19  H    0.152619
    20  H    0.144413
    21  H    0.146140
    22  H    0.144406
 Sum of Mulliken charges =   0.00000

 Dipole moment (field-independent basis, Debye):
    X=              0.0000    Y=             -0.0073    Z=              0.0001  Tot=              0.0073
 N-N= 3.285257112930D+02 E-N=-5.829973373565D+02  KE=-3.710769221805D+01
 1\1\GINC-GTX1080DELTA\Scan\RPM6\ZDO\C12H10\MVEROT\18-Apr-2022\0\\#n PM
 6 Opt=modredundant\\Optimisation de geometrie\\0,1\C,-3.0716119463,1.0
 886285695,-0.8330292263\C,-1.6804535964,1.2151206806,-0.8197032229\C,-
 0.9033709377,0.4020456876,0.0231263291\C,-1.5434625044,-0.5274966509,0
 .8610999252\C,-2.934933673,-0.6486765403,0.8448864664\C,-3.7021945269,
 0.1573642644,-0.0020575554\C,0.5690637518,0.5448062739,0.0544501933\C,
 1.3899881994,-0.5929798349,0.1411444839\C,2.7803171711,-0.4588916811,0
 .1517648758\C,3.3662193845,0.808377814,0.0714153392\C,2.5549075089,1.9
 434640926,-0.021930764\C,1.1639238183,1.8150736225,-0.0343895159\H,0.5

 Normal termination of Gaussian 09 at Mon Apr 18 01:06:38 2022.
