 Gaussian 09, Revision D.01,
 Gaussian 09:  AM64L-G09RevD.01 24-Apr-2013

 ---------------
 #n AM1 Opt freq
 ---------------

 -------------------------
 Optimisation de geometrie
 -------------------------
 Symbolic Z-matrix:
 Charge =  0 Multiplicity = 1

 SCF Done:  E(RAM1) =  0.201578878518E-01 A.U. after   11 cycles
 SCF Done:  E(RAM1) =  0.173823217847E-01 A.U. after   10 cycles
 SCF Done:  E(RAM1) =  0.171448442798E-01 A.U. after    9 cycles
 SCF Done:  E(RAM1) =  0.171027372171E-01 A.U. after    9 cycles
 SCF Done:  E(RAM1) =  0.170993568141E-01 A.U. after    8 cycles
 Optimization completed.
    -- Stationary point found.
 Normal termination of Gaussian 09 at Sat Apr 16 11:43:10 2022.

 -------------------------------------------------------------
 #N Geom=AllCheck Guess=TCheck SCRF=Check GenChk RAM1/ZDO Freq
 -------------------------------------------------------------

 Structure from the checkpoint file:  "Methylcyclopropane-opt.chk"
 -------------------------
 Optimisation de geometrie
 -------------------------
 Charge =  0 Multiplicity = 1

                         Standard orientation:
 ---------------------------------------------------------------------
 Center     Atomic      Atomic             Coordinates (Angstroms)
 Number     Number       Type             X           Y           Z
 ---------------------------------------------------------------------
      1          6           0        0.192214    0.000005    0.500377
      2          6           0       -0.948952   -0.749654   -0.136057
      3          6           0       -0.948963    0.749650   -0.136057
      4          6           0        1.531311    0.000002   -0.147636
      5          1           0        0.253693    0.000003    1.607618
      6          1           0       -0.771932   -1.284456   -1.085949
      7          1           0       -1.662161   -1.287753    0.512390
      8          1           0       -1.662182    1.287744    0.512380
      9          1           0       -0.771945    1.284445   -1.085956
     10          1           0        1.442863    0.000072   -1.261541
     11          1           0        2.109032    0.906513    0.158705
     12          1           0        2.108972   -0.906584    0.158598
 ---------------------------------------------------------------------

 SCF Done:  E(RAM1) =  0.170993568138E-01 A.U. after    2 cycles

 The electronic state is 1-A.
 Alpha  occ. eigenvalues --   -1.42100  -1.08139  -0.85011  -0.78015  -0.61409
 Alpha  occ. eigenvalues --   -0.55876  -0.51428  -0.48488  -0.44958  -0.44767
 Alpha  occ. eigenvalues --   -0.41183  -0.39685
 Alpha virt. eigenvalues --    0.11113   0.13650   0.14824   0.15198   0.16282
 Alpha virt. eigenvalues --    0.17526   0.17712   0.17897   0.18374   0.18777
 Alpha virt. eigenvalues --    0.18887   0.19462

 Mulliken charges:
               1
     1  C   -0.163387
     2  C   -0.212512
     3  C   -0.212509
     4  C   -0.184926
     5  H    0.115518
     6  H    0.108446
     7  H    0.107310
     8  H    0.107311
     9  H    0.108445
    10  H    0.073059
    11  H    0.076622
    12  H    0.076622
 Sum of Mulliken charges =  -0.00000

 Dipole moment (field-independent basis, Debye):
    X=              0.0713    Y=             -0.0000    Z=             -0.0158  Tot=              0.0730
 N-N= 8.227423655411D+01 E-N=-1.336029582719D+02  KE=-1.489011750907D+01
  Exact polarizability:  33.798  -0.000  32.294   1.390  -0.000  30.248
 Approx polarizability:  19.992  -0.000  20.414   1.106  -0.000  19.173
 Calling FoFJK, ICntrl=    100127 FMM=F ISym2X=0 I1Cent= 0 IOpClX= 0 NMat=1 NMatS=1 NMatT=0.
 Full mass-weighted force constant matrix:
 Low frequencies ---  -11.8130   -0.0381   -0.0160   -0.0014    4.7199    7.9526
 Low frequencies ---  112.0742  338.2730  400.2593
 Diagonal vibrational polarizability:
        0.2283896       0.4580694       0.2143494
 Harmonic frequencies (cm**-1), IR intensities (KM/Mole), Raman scattering

                      1                      2                      3
                      A                      A                      A
 Frequencies --    112.0382               338.2728               400.2591
 Red. masses --      1.0630                 2.0409                 2.1550
 Frc consts  --      0.0079                 0.1376                 0.2034
 IR Inten    --      0.0187                 0.4494                 0.1159

                      4                      5                      6
                      A                      A                      A
 Frequencies --    805.9727               865.5471               918.6184
 Red. masses --      1.0289                 1.0343                 1.8612
 Frc consts  --      0.3938                 0.4565                 0.9253
 IR Inten    --      0.0298                 1.3356                 2.5033

                      7                      8                      9
                      A                      A                      A
 Frequencies --    960.4685               968.6897              1003.2552
 Red. masses --      1.2418                 1.9341                 1.0616
 Frc consts  --      0.6750                 1.0693                 0.6296
 IR Inten    --      4.1393                 0.6967                 4.0241

                     10                     11                     12
                      A                      A                      A
 Frequencies --   1103.7127              1145.8967              1164.2945
 Red. masses --      1.2580                 1.6166                 2.1098
 Frc consts  --      0.9029                 1.2507                 1.6851
 IR Inten    --      2.9743                 1.0832                 0.1480

                     13                     14                     15
                      A                      A                      A
 Frequencies --   1167.9113              1205.5550              1264.0326
 Red. masses --      2.0657                 1.4821                 1.3551
 Frc consts  --      1.6601                 1.2691                 1.2757
 IR Inten    --      1.1459                 1.8118                 0.2547

                     16                     17                     18
                      A                      A                      A
 Frequencies --   1334.5368              1388.1005              1390.9479
 Red. masses --      1.6321                 1.0818                 1.0683
 Frc consts  --      1.7127                 1.2281                 1.2177
 IR Inten    --      0.2358                 1.0699                 0.9366

                     19                     20                     21
                      A                      A                      A
 Frequencies --   1424.2037              1434.3114              1453.0380
 Red. masses --      1.1215                 1.0991                 1.5261
 Frc consts  --      1.3403                 1.3323                 1.8984
 IR Inten    --      0.4575                 2.1775                 1.5153

                     22                     23                     24
                      A                      A                      A
 Frequencies --   1654.7867              3056.1616              3057.0904
 Red. masses --      8.3102                 1.0902                 1.0895
 Frc consts  --     13.4074                 5.9994                 5.9992
 IR Inten    --      0.0107                 0.4913                 0.0874

                     25                     26                     27
                      A                      A                      A
 Frequencies --   3139.3034              3139.4383              3153.3055
 Red. masses --      1.0944                 1.0696                 1.0369
 Frc consts  --      6.3550                 6.2115                 6.0748
 IR Inten    --      0.0195                 3.2597                 0.5822

                     28                     29                     30
                      A                      A                      A
 Frequencies --   3165.2745              3198.2989              3206.6264
 Red. masses --      1.0961                 1.0497                 1.0496
 Frc consts  --      6.4704                 6.3265                 6.3586
 IR Inten    --     21.4504                 6.2794                13.4137

 - Thermochemistry -
 -------------------
 Temperature   298.150 Kelvin.  Pressure   1.00000 Atm.
 Atom     1 has atomic number  6 and mass  12.00000

 Molecular mass:    56.06260 amu.
 Principal axes and moments of inertia in atomic units:
                           1         2         3
     Eigenvalues --   116.67868 281.92041 321.02578
           X            0.99991  -0.00000  -0.01351
           Y            0.00000   1.00000  -0.00000
           Z            0.01351   0.00000   0.99991
 This molecule is an asymmetric top.
 Rotational symmetry number  1.
 Rotational temperatures (Kelvin)      0.74233     0.30723     0.26980
 Rotational constants (GHZ):          15.46762     6.40160     5.62180
 Zero-point vibrational energy     290811.9 (Joules/Mol)
                                   69.50571 (Kcal/Mol)
 Warning -- explicit consideration of   3 degrees of freedom as
           vibrations may cause significant error
 Vibrational temperatures:    161.20   486.70   575.88  1159.61  1245.33
          (Kelvin)           1321.69  1381.90  1393.73  1443.46  1587.99
                             1648.69  1675.16  1680.36  1734.52  1818.66
                             1920.10  1997.16  2001.26  2049.11  2063.65
                             2090.60  2380.87  4397.13  4398.47  4516.75
                             4516.95  4536.90  4554.12  4601.63  4613.61

 Zero-point correction=                           0.110764 (Hartree/Particle)
 Thermal correction to Energy=                    0.115462
 Thermal correction to Enthalpy=                  0.116406
 Thermal correction to Gibbs Free Energy=         0.083871
 Sum of electronic and zero-point Energies=              0.127864
 Sum of electronic and thermal Energies=                 0.132561
 Sum of electronic and thermal Enthalpies=               0.133505
 Sum of electronic and thermal Free Energies=            0.100971

                     E (Thermal)             CV                S
                      KCal/Mol        Cal/Mol-Kelvin    Cal/Mol-Kelvin
 Total                   72.453             15.863             68.474
 Electronic               0.000              0.000              0.000
 Translational            0.889              2.981             37.993
 Rotational               0.889              2.981             23.872
 Vibrational             70.676              9.901              6.609
 Vibration     1          0.607              1.939              3.233
 Vibration     2          0.719              1.599              1.220
 Vibration     3          0.766              1.470              0.962

 Normal termination of Gaussian 09 at Sat Apr 16 11:43:12 2022.
