 Gaussian 09, Revision D.01,
 Gaussian 09:  AM64L-G09RevD.01 24-Apr-2013

 -----------------------
 #n PM3 Opt=modredundant
 -----------------------

 -------------------------
 Optimisation de geometrie
 -------------------------
 Symbolic Z-matrix:
 Charge =  0 Multiplicity = 1

 SCF Done:  E(RPM3) = -0.151488500065     A.U. after   13 cycles
 SCF Done:  E(RPM3) = -0.154846156066     A.U. after   12 cycles
 SCF Done:  E(RPM3) = -0.155150682751     A.U. after   11 cycles
 SCF Done:  E(RPM3) = -0.155189558096     A.U. after   10 cycles
 SCF Done:  E(RPM3) = -0.155205670114     A.U. after   10 cycles
 SCF Done:  E(RPM3) = -0.155214225391     A.U. after   10 cycles
 Optimization completed.
    -- Stationary point found.
 SCF Done:  E(RPM3) = -0.152897680805     A.U. after   12 cycles
 SCF Done:  E(RPM3) = -0.154216777464     A.U. after   12 cycles
 SCF Done:  E(RPM3) = -0.154310090981     A.U. after   11 cycles
 SCF Done:  E(RPM3) = -0.154312182032     A.U. after    9 cycles
 Optimization completed.
 SCF Done:  E(RPM3) = -0.156942861412     A.U. after   11 cycles
 SCF Done:  E(RPM3) = -0.155601018226     A.U. after   12 cycles
 SCF Done:  E(RPM3) = -0.156971798724     A.U. after   11 cycles
 SCF Done:  E(RPM3) = -0.157004948228     A.U. after   10 cycles
 SCF Done:  E(RPM3) = -0.157005243025     A.U. after    9 cycles
 SCF Done:  E(RPM3) = -0.157005323791     A.U. after    9 cycles
    -- Stationary point found.
 SCF Done:  E(RPM3) = -0.155488477862     A.U. after   12 cycles
 SCF Done:  E(RPM3) = -0.156834618725     A.U. after   12 cycles
 SCF Done:  E(RPM3) = -0.156866805257     A.U. after   10 cycles
 SCF Done:  E(RPM3) = -0.156866962009     A.U. after    9 cycles
 Optimization completed.
    -- Stationary point found.

                         Standard orientation:
 ---------------------------------------------------------------------
 Center     Atomic      Atomic             Coordinates (Angstroms)
 Number     Number       Type             X           Y           Z
 ---------------------------------------------------------------------
      1          6           0        0.730768   -0.581475    0.242279
      2          8           0        1.452230    0.539369   -0.192252
      3          6           0       -0.730769   -0.581480   -0.242287
      4          8           0       -1.452252    0.539368    0.192235
      5          1           0        0.785692   -0.678624    1.343498
      6          1           0        1.282126   -1.428215   -0.201339
      7          1           0        1.158853    1.280686    0.322617
      8          1           0       -1.282130   -1.428179    0.201375
      9          1           0       -0.785675   -0.678559   -1.343498
     10          1           0       -1.158686    1.280725   -0.322471
 ---------------------------------------------------------------------

 The electronic state is 1-A.
 Alpha  occ. eigenvalues --   -1.47355  -1.33894  -1.06872  -0.82211  -0.67429
 Alpha  occ. eigenvalues --   -0.66697  -0.61570  -0.57022  -0.53907  -0.49005
 Alpha  occ. eigenvalues --   -0.45220  -0.43841  -0.40437
 Alpha virt. eigenvalues --    0.11039   0.12307   0.12588   0.13868   0.14693
 Alpha virt. eigenvalues --    0.15237   0.16657   0.20030   0.20061

 Mulliken charges:
               1
     1  C    0.027578
     2  O   -0.307755
     3  C    0.027584
     4  O   -0.307762
     5  H    0.036736
     6  H    0.059289
     7  H    0.184149
     8  H    0.059293
     9  H    0.036740
    10  H    0.184147
 Sum of Mulliken charges =   0.00000

 Dipole moment (field-independent basis, Debye):
    X=              0.0003    Y=             -0.0504    Z=              0.0003  Tot=              0.0504
 N-N= 1.010860236366D+02 E-N=-1.648652265423D+02  KE=-1.851135409104D+01
 1\1\GINC-GTX1080DELTA\Scan\RPM3\ZDO\C2H6O2\MVEROT\18-Apr-2022\0\\#n PM
 3 Opt=modredundant\\Optimisation de geometrie\\0,1\C,1.5278073757,2.16
 02015698,2.1712653935\O,0.6725607922,2.9737713032,1.4147776766\C,2.096
 4155065,0.9750555644,1.3693872044\O,1.1006232669,0.1286209907,0.861850
 682\H,1.0224995427,1.8123810879,3.0925801696\H,2.3388020451,2.84746484
 82,2.4674373194\H,-0.1443083745,2.5024390496,1.3085630107\H,2.68373481
 32,0.3125864079,2.0281178241\H,2.7620970001,1.3257355051,0.55760083\H,
 0.693068032,0.5783436732,0.1322198896\\Version=AM64L-G09RevD.01\State=
 1-A\HF=-0.1552142,-0.1565505,-0.1561322,-0.1557293,-0.1554536,-0.15538

 Normal termination of Gaussian 09 at Mon Apr 18 00:11:20 2022.
