 Gaussian 09, Revision D.01,
 Gaussian 09:  AM64L-G09RevD.01 24-Apr-2013

 ---------------
 #n AM1 Opt freq
 ---------------

 -------------------------
 Optimisation de geometrie
 -------------------------
 Symbolic Z-matrix:
 Charge =  0 Multiplicity = 1

 SCF Done:  E(RAM1) = -0.552862421027E-01 A.U. after   11 cycles
 SCF Done:  E(RAM1) = -0.609338759538E-01 A.U. after    9 cycles
 SCF Done:  E(RAM1) = -0.614841766174E-01 A.U. after    9 cycles
 SCF Done:  E(RAM1) = -0.615975977639E-01 A.U. after    8 cycles
 SCF Done:  E(RAM1) = -0.616015173193E-01 A.U. after    8 cycles
 SCF Done:  E(RAM1) = -0.616019606044E-01 A.U. after    8 cycles
 Optimization completed.
    -- Stationary point found.
 Normal termination of Gaussian 09 at Sat Apr 16 12:29:36 2022.

 -------------------------------------------------------------
 #N Geom=AllCheck Guess=TCheck SCRF=Check GenChk RAM1/ZDO Freq
 -------------------------------------------------------------

 Structure from the checkpoint file:  "cyclohexane-opt.chk"
 -------------------------
 Optimisation de geometrie
 -------------------------
 Charge =  0 Multiplicity = 1

                         Standard orientation:
 ---------------------------------------------------------------------
 Center     Atomic      Atomic             Coordinates (Angstroms)
 Number     Number       Type             X           Y           Z
 ---------------------------------------------------------------------
      1          6           0       -0.107667   -1.440553   -0.228587
      2          6           0        1.193724   -0.813516    0.228588
      3          6           0        1.301391    0.627033   -0.228588
      4          6           0        0.107667    1.440553    0.228586
      5          6           0       -1.193724    0.813516   -0.228588
      6          6           0       -1.301390   -0.627032    0.228588
      7          1           0       -0.185542   -2.482504    0.177402
      8          1           0       -0.113131   -1.513651   -1.347961
      9          1           0        2.057146   -1.401930   -0.177397
     10          1           0        1.254293   -0.854790    1.347964
     11          1           0        1.367424    0.658845   -1.347963
     12          1           0        2.242688    1.080561    0.177399
     13          1           0        0.185541    2.482504   -0.177402
     14          1           0        0.113131    1.513652    1.347961
     15          1           0       -1.254293    0.854790   -1.347964
     16          1           0       -2.057146    1.401930    0.177397
     17          1           0       -2.242687   -1.080562   -0.177398
     18          1           0       -1.367424   -0.658845    1.347963
 ---------------------------------------------------------------------

 SCF Done:  E(RAM1) = -0.616019606038E-01 A.U. after    2 cycles

 The electronic state is 1-A.
 Alpha  occ. eigenvalues --   -1.42707  -1.15697  -1.15697  -0.85321  -0.85320
 Alpha  occ. eigenvalues --   -0.73337  -0.60564  -0.55163  -0.54581  -0.54581
 Alpha  occ. eigenvalues --   -0.49637  -0.47841  -0.47841  -0.43312  -0.43312
 Alpha  occ. eigenvalues --   -0.40396  -0.40196  -0.40196
 Alpha virt. eigenvalues --    0.13433   0.14272   0.14272   0.15626   0.15626
 Alpha virt. eigenvalues --    0.16474   0.16891   0.16891   0.17145   0.17829
 Alpha virt. eigenvalues --    0.18344   0.18344   0.18688   0.18688   0.19691

 Mulliken charges:
               1
     1  C   -0.154682
     2  C   -0.154683
     3  C   -0.154683
     4  C   -0.154682
     5  C   -0.154683
     6  C   -0.154683
     7  H    0.076778
     8  H    0.077905
     9  H    0.076778
    10  H    0.077904
    11  H    0.077904
    12  H    0.076778
    13  H    0.076778
    14  H    0.077904
    15  H    0.077904
    16  H    0.076778
    17  H    0.076778
    18  H    0.077904
 Sum of Mulliken charges =   0.00000

 Dipole moment (field-independent basis, Debye):
    X=             -0.0000    Y=             -0.0000    Z=              0.0000  Tot=              0.0000
 N-N= 1.594663528579D+02 E-N=-2.720150655997D+02  KE=-2.312684806739D+01
  Exact polarizability:  48.335  -0.000  48.335   0.000   0.000  47.544
 Approx polarizability:  29.257  -0.000  29.257   0.000   0.000  31.782
 Calling FoFJK, ICntrl=    100127 FMM=F ISym2X=0 I1Cent= 0 IOpClX= 0 NMat=1 NMatS=1 NMatT=0.
 Full mass-weighted force constant matrix:
 Low frequencies ---   -3.2498   -2.8607   -0.0008   -0.0008   -0.0004    1.2496
 Low frequencies ---  202.5569  202.5644  322.0832
 Diagonal vibrational polarizability:
        0.1526249       0.1526225       0.2293683
 Harmonic frequencies (cm**-1), IR intensities (KM/Mole), Raman scattering

                      1                      2                      3
                      A                      A                      A
 Frequencies --    202.5569               202.5644               322.0832
 Red. masses --      1.7247                 1.7247                 1.5122
 Frc consts  --      0.0417                 0.0417                 0.0924
 IR Inten    --      0.0805                 0.0805                 0.0000

                      4                      5                      6
                      A                      A                      A
 Frequencies --    464.8488               464.8504               571.1249
 Red. masses --      2.9158                 2.9158                 1.3399
 Frc consts  --      0.3712                 0.3712                 0.2575
 IR Inten    --      0.0000                 0.0000                 2.2703

                      7                      8                      9
                      A                      A                      A
 Frequencies --    835.5486               835.5498               949.1093
 Red. masses --      1.4442                 1.4442                 1.3200
 Frc consts  --      0.5941                 0.5941                 0.7006
 IR Inten    --      0.0000                 0.0000                 2.3090

                     10                     11                     12
                      A                      A                      A
 Frequencies --    949.1105              1004.0769              1013.3572
 Red. masses --      1.3200                 2.9361                 2.3177
 Frc consts  --      0.7006                 1.7441                 1.4023
 IR Inten    --      2.3091                 0.0000                 1.0078

                     13                     14                     15
                      A                      A                      A
 Frequencies --   1034.7325              1034.7408              1084.5056
 Red. masses --      1.6021                 1.6021                 1.0081
 Frc consts  --      1.0106                 1.0106                 0.6986
 IR Inten    --      0.6803                 0.6802                 0.0000

                     16                     17                     18
                      A                      A                      A
 Frequencies --   1124.8603              1167.8552              1167.8576
 Red. masses --      1.0707                 1.0621                 1.0621
 Frc consts  --      0.7982                 0.8535                 0.8535
 IR Inten    --      0.0000                 0.0000                 0.0000

                     19                     20                     21
                      A                      A                      A
 Frequencies --   1208.8365              1239.8238              1239.8295
 Red. masses --      2.4056                 1.2518                 1.2518
 Frc consts  --      2.0712                 1.1337                 1.1337
 IR Inten    --      0.0000                 0.0000                 0.0000

                     22                     23                     24
                      A                      A                      A
 Frequencies --   1242.5149              1242.5168              1259.1524
 Red. masses --      1.4082                 1.4083                 1.0377
 Frc consts  --      1.2810                 1.2810                 0.9693
 IR Inten    --      0.1875                 0.1875                 0.0000

                     25                     26                     27
                      A                      A                      A
 Frequencies --   1371.1004              1394.6096              1394.6106
 Red. masses --      1.3144                 1.1425                 1.1425
 Frc consts  --      1.4559                 1.3092                 1.3092
 IR Inten    --      0.0000                 0.1331                 0.1332

                     28                     29                     30
                      A                      A                      A
 Frequencies --   1403.0181              1405.2444              1405.2454
 Red. masses --      5.8772                 1.1012                 1.1012
 Frc consts  --      6.8163                 1.2812                 1.2812
 IR Inten    --      0.0000                 0.0000                 0.0000

                     31                     32                     33
                      A                      A                      A
 Frequencies --   1412.8982              1414.2250              1419.8049
 Red. masses --      1.1887                 1.1312                 3.5641
 Frc consts  --      1.3981                 1.3330                 4.2331
 IR Inten    --      0.0000                 1.0198                 0.0000

                     34                     35                     36
                      A                      A                      A
 Frequencies --   1419.8167              1426.2139              1426.2185
 Red. masses --      3.5645                 1.7626                 1.7626
 Frc consts  --      4.2336                 2.1123                 2.1124
 IR Inten    --      0.0000                 0.6158                 0.6158

                     37                     38                     39
                      A                      A                      A
 Frequencies --   3011.9509              3018.6467              3018.6472
 Red. masses --      1.0837                 1.0877                 1.0877
 Frc consts  --      5.7926                 5.8397                 5.8397
 IR Inten    --      0.0000                 0.0013                 0.0013

                     40                     41                     42
                      A                      A                      A
 Frequencies --   3032.6615              3032.6619              3039.7351
 Red. masses --      1.0941                 1.0941                 1.0966
 Frc consts  --      5.9284                 5.9284                 5.9698
 IR Inten    --      0.0000                 0.0000                 0.6041

                     43                     44                     45
                      A                      A                      A
 Frequencies --   3092.5811              3093.7162              3093.7167
 Red. masses --      1.0482                 1.0463                 1.0463
 Frc consts  --      5.9063                 5.9004                 5.9004
 IR Inten    --      0.0000                 0.1749                 0.1749

                     46                     47                     48
                      A                      A                      A
 Frequencies --   3098.5342              3098.5352              3101.5324
 Red. masses --      1.0503                 1.0503                 1.0550
 Frc consts  --      5.9412                 5.9413                 5.9792
 IR Inten    --      0.0000                 0.0000                 0.0615

 - Thermochemistry -
 -------------------
 Temperature   298.150 Kelvin.  Pressure   1.00000 Atm.
 Atom     1 has atomic number  6 and mass  12.00000

 Molecular mass:    84.09390 amu.
 Principal axes and moments of inertia in atomic units:
                           1         2         3
     Eigenvalues --   413.41115 413.41307 720.12233
           X            1.00000  -0.00100   0.00000
           Y            0.00100   1.00000   0.00000
           Z           -0.00000  -0.00000   1.00000
 This molecule is an asymmetric top.
 Rotational symmetry number  1.
 Rotational temperatures (Kelvin)      0.20951     0.20951     0.12028
 Rotational constants (GHZ):           4.36549     4.36547     2.50616
 Zero-point vibrational energy     451518.1 (Joules/Mol)
                                  107.91542 (Kcal/Mol)
 Warning -- explicit consideration of   6 degrees of freedom as
           vibrations may cause significant error
 Vibrational temperatures:    291.43   291.44   463.41   668.81   668.82
          (Kelvin)            821.72  1202.17  1202.17  1365.55  1365.56
                             1444.64  1457.99  1488.75  1488.76  1560.36
                             1618.42  1680.28  1680.28  1739.24  1783.83
                             1783.84  1787.70  1787.70  1811.64  1972.71
                             2006.53  2006.53  2018.63  2021.83  2021.83
                             2032.84  2034.75  2042.78  2042.80  2052.00
                             2052.01  4333.52  4343.15  4343.15  4363.32
                             4363.32  4373.50  4449.53  4451.16  4451.16
                             4458.09  4458.10  4462.41

 Zero-point correction=                           0.171974 (Hartree/Particle)
 Thermal correction to Energy=                    0.177616
 Thermal correction to Enthalpy=                  0.178560
 Thermal correction to Gibbs Free Energy=         0.143110
 Sum of electronic and zero-point Energies=              0.110372
 Sum of electronic and thermal Energies=                 0.116014
 Sum of electronic and thermal Enthalpies=               0.116958
 Sum of electronic and thermal Free Energies=            0.081508

                     E (Thermal)             CV                S
                      KCal/Mol        Cal/Mol-Kelvin    Cal/Mol-Kelvin
 Total                  111.456             21.826             74.610
 Electronic               0.000              0.000              0.000
 Translational            0.889              2.981             39.202
 Rotational               0.889              2.981             26.312
 Vibrational            109.678             15.864              9.097
 Vibration     1          0.639              1.836              2.110
 Vibration     2          0.639              1.836              2.110
 Vibration     3          0.707              1.631              1.300
 Vibration     4          0.822              1.328              0.752
 Vibration     5          0.822              1.328              0.752
 Vibration     6          0.927              1.094              0.502

 Optimization completed.
    -- Stationary point found.
 Normal termination of Gaussian 09 at Sat Apr 16 12:29:38 2022.
