 Gaussian 09, Revision D.01,
 Gaussian 09:  AM64L-G09RevD.01 24-Apr-2013

 ---------------
 #n AM1 Opt freq
 ---------------

 -------------------------
 Optimisation de geometrie
 -------------------------
 Symbolic Z-matrix:
 Charge =  0 Multiplicity = 1

 SCF Done:  E(RAM1) = -0.383081243408E-01 A.U. after   11 cycles
 SCF Done:  E(RAM1) = -0.431507153177E-01 A.U. after   10 cycles
 SCF Done:  E(RAM1) = -0.447609102162E-01 A.U. after   10 cycles
 SCF Done:  E(RAM1) = -0.456441762478E-01 A.U. after   10 cycles
 SCF Done:  E(RAM1) = -0.459768731382E-01 A.U. after   10 cycles
 SCF Done:  E(RAM1) = -0.460364576657E-01 A.U. after    9 cycles
 SCF Done:  E(RAM1) = -0.460501533062E-01 A.U. after    9 cycles
 SCF Done:  E(RAM1) = -0.460527442991E-01 A.U. after    9 cycles
 SCF Done:  E(RAM1) = -0.460529866197E-01 A.U. after    8 cycles
 SCF Done:  E(RAM1) = -0.460530148790E-01 A.U. after    8 cycles
 Optimization completed.
    -- Stationary point found.
 Normal termination of Gaussian 09 at Sat Apr 16 12:29:48 2022.

 -------------------------------------------------------------
 #N Geom=AllCheck Guess=TCheck SCRF=Check GenChk RAM1/ZDO Freq
 -------------------------------------------------------------

 Structure from the checkpoint file:  "cyclopentane-opt.chk"
 -------------------------
 Optimisation de geometrie
 -------------------------
 Charge =  0 Multiplicity = 1

                         Standard orientation:
 ---------------------------------------------------------------------
 Center     Atomic      Atomic             Coordinates (Angstroms)
 Number     Number       Type             X           Y           Z
 ---------------------------------------------------------------------
      1          6           0       -1.241110   -0.349093   -0.080213
      2          6           0       -0.055086   -1.285791    0.101438
      3          6           0       -0.716063    1.076263    0.028784
      4          6           0        1.206391   -0.454093   -0.082742
      5          6           0        0.805865    1.010583    0.032737
      6          1           0       -1.712686   -0.511805   -1.082245
      7          1           0       -2.025530   -0.546024    0.691672
      8          1           0       -0.073426   -1.738111    1.125250
      9          1           0       -0.091870   -2.126257   -0.634582
     10          1           0       -1.082838    1.696206   -0.826879
     11          1           0       -1.086498    1.557926    0.968435
     12          1           0        1.974365   -0.720176    0.684893
     13          1           0        1.657755   -0.653342   -1.087494
     14          1           0        1.229688    1.601961   -0.816717
     15          1           0        1.211058    1.452403    0.977645
 ---------------------------------------------------------------------

 SCF Done:  E(RAM1) = -0.460530148791E-01 A.U. after    2 cycles

 The electronic state is 1-A.
 Alpha  occ. eigenvalues --   -1.41364  -1.08604  -1.08603  -0.77052  -0.76830
 Alpha  occ. eigenvalues --   -0.61689  -0.59552  -0.51242  -0.51237  -0.45446
 Alpha  occ. eigenvalues --   -0.45369  -0.44070  -0.44069  -0.40424  -0.40315
 Alpha virt. eigenvalues --    0.13313   0.14059   0.14059   0.15784   0.15784
 Alpha virt. eigenvalues --    0.17486   0.17493   0.17679   0.18260   0.18793
 Alpha virt. eigenvalues --    0.18806   0.19287   0.19292   0.19574   0.19602

 Mulliken charges:
               1
     1  C   -0.157076
     2  C   -0.157172
     3  C   -0.156931
     4  C   -0.157086
     5  C   -0.156937
     6  H    0.077760
     7  H    0.079430
     8  H    0.077810
     9  H    0.079791
    10  H    0.078614
    11  H    0.077961
    12  H    0.079472
    13  H    0.077762
    14  H    0.078671
    15  H    0.077931
 Sum of Mulliken charges =   0.00000

 Dipole moment (field-independent basis, Debye):
    X=             -0.0000    Y=             -0.0027    Z=              0.0000  Tot=              0.0027
 N-N= 1.189019565170D+02 E-N=-1.990018001453D+02  KE=-1.897694219631D+01
  Exact polarizability:  38.299  -0.000  38.295   0.002   0.016  39.044
 Approx polarizability:  23.205  -0.000  23.202   0.001   0.007  25.195
 Calling FoFJK, ICntrl=    100127 FMM=F ISym2X=0 I1Cent= 0 IOpClX= 0 NMat=1 NMatS=1 NMatT=0.
 Full mass-weighted force constant matrix:
 Low frequencies ---   -0.4487   -0.0403   -0.0021    0.1441    1.8957    2.5281
 Low frequencies ---    3.4426   91.7489  674.3773
 Diagonal vibrational polarizability:
        3.5632949       0.0357657       0.1671348
 Harmonic frequencies (cm**-1), IR intensities (KM/Mole), Raman scattering

                      1                      2                      3
                      A                      A                      A
 Frequencies --      3.3355                91.7488               674.3773
 Red. masses --      1.5405                 1.5449                 1.9902
 Frc consts  --      0.0000                 0.0077                 0.5333
 IR Inten    --      0.0015                 0.0009                 1.6502

                      4                      5                      6
                      A                      A                      A
 Frequencies --    703.9411               776.3799               821.6937
 Red. masses --      3.5647                 1.3266                 1.2706
 Frc consts  --      1.0407                 0.4711                 0.5054
 IR Inten    --      0.0039                 1.3580                 0.0320

                      7                      8                      9
                      A                      A                      A
 Frequencies --    824.8307              1034.2621              1039.2142
 Red. masses --      1.3285                 1.2318                 1.2492
 Frc consts  --      0.5325                 0.7764                 0.7949
 IR Inten    --      0.0857                 0.0025                 0.0018

                     10                     11                     12
                      A                      A                      A
 Frequencies --   1093.1285              1093.1894              1124.1353
 Red. masses --      1.7354                 1.7349                 1.0118
 Frc consts  --      1.2217                 1.2216                 0.7533
 IR Inten    --      0.5951                 0.5983                 0.0001

                     13                     14                     15
                      A                      A                      A
 Frequencies --   1147.4668              1178.6801              1178.8550
 Red. masses --      3.1799                 1.1292                 1.1292
 Frc consts  --      2.4669                 0.9243                 0.9245
 IR Inten    --      0.0015                 0.0841                 0.0794

                     16                     17                     18
                      A                      A                      A
 Frequencies --   1201.9322              1207.3497              1254.6317
 Red. masses --      1.4810                 1.5105                 1.0889
 Frc consts  --      1.2606                 1.2973                 1.0099
 IR Inten    --      0.0672                 0.0535                 0.0009

                     19                     20                     21
                      A                      A                      A
 Frequencies --   1259.3549              1333.9779              1336.7369
 Red. masses --      1.0743                 5.6071                 5.1216
 Frc consts  --      1.0038                 5.8787                 5.3919
 IR Inten    --      0.0042                 0.0018                 0.0013

                     22                     23                     24
                      A                      A                      A
 Frequencies --   1369.6450              1394.5534              1394.5617
 Red. masses --      1.3520                 1.2440                 1.2447
 Frc consts  --      1.4943                 1.4254                 1.4262
 IR Inten    --      0.0016                 0.5772                 0.5796

                     25                     26                     27
                      A                      A                      A
 Frequencies --   1408.9027              1410.1674              1428.2612
 Red. masses --      1.1689                 1.1631                 1.6243
 Frc consts  --      1.3671                 1.3628                 1.9522
 IR Inten    --      0.0009                 0.0375                 0.3650

                     28                     29                     30
                      A                      A                      A
 Frequencies --   1428.2835              1433.1641              3020.6526
 Red. masses --      1.6239                 1.2110                 1.0867
 Frc consts  --      1.9518                 1.4656                 5.8421
 IR Inten    --      0.3624                 0.0068                 0.0015

                     31                     32                     33
                      A                      A                      A
 Frequencies --   3021.8399              3046.1027              3046.1136
 Red. masses --      1.0863                 1.0948                 1.0948
 Frc consts  --      5.8446                 5.9852                 5.9853
 IR Inten    --      0.0015                 0.0128                 0.0160

                     34                     35                     36
                      A                      A                      A
 Frequencies --   3062.7321              3109.4433              3109.9172
 Red. masses --      1.1006                 1.0474                 1.0470
 Frc consts  --      6.0825                 5.9668                 5.9661
 IR Inten    --      2.1982                 0.4725                 0.8073

                     37                     38                     39
                      A                      A                      A
 Frequencies --   3110.6385              3114.2098              3115.1955
 Red. masses --      1.0481                 1.0533                 1.0533
 Frc consts  --      5.9754                 6.0184                 6.0223
 IR Inten    --      0.3391                 0.0146                 0.0200

 - Thermochemistry -
 -------------------
 Temperature   298.150 Kelvin.  Pressure   1.00000 Atm.
 Atom     1 has atomic number  6 and mass  12.00000

 Molecular mass:    70.07825 amu.
 Principal axes and moments of inertia in atomic units:
                           1         2         3
     Eigenvalues --   277.44472 277.44561 493.57798
           X            0.99995  -0.00953   0.00001
           Y            0.00953   0.99995   0.00008
           Z           -0.00001  -0.00008   1.00000
 This molecule is an asymmetric top.
 Rotational symmetry number  1.
 Rotational temperatures (Kelvin)      0.31218     0.31218     0.17548
 Rotational constants (GHZ):           6.50487     6.50485     3.65645
 Zero-point vibrational energy     373256.4 (Joules/Mol)
                                   89.21043 (Kcal/Mol)
 Warning -- explicit consideration of   2 degrees of freedom as
           vibrations may cause significant error
 Vibrational temperatures:      4.80   132.01   970.28  1012.81  1117.04
          (Kelvin)           1182.23  1186.75  1488.07  1495.20  1572.77
                             1572.85  1617.38  1650.95  1695.86  1696.11
                             1729.31  1737.10  1805.13  1811.93  1919.29
                             1923.26  1970.61  2006.45  2006.46  2027.09
                             2028.91  2054.95  2054.98  2062.00  4346.04
                             4347.75  4382.66  4382.67  4406.58  4473.79
                             4474.47  4475.51  4480.65  4482.07

 Zero-point correction=                           0.142166 (Hartree/Particle)
 Thermal correction to Energy=                    0.147481
 Thermal correction to Enthalpy=                  0.148425
 Thermal correction to Gibbs Free Energy=         0.110565
 Sum of electronic and zero-point Energies=              0.096113
 Sum of electronic and thermal Energies=                 0.101428
 Sum of electronic and thermal Enthalpies=               0.102372
 Sum of electronic and thermal Free Energies=            0.064512

                     E (Thermal)             CV                S
                      KCal/Mol        Cal/Mol-Kelvin    Cal/Mol-Kelvin
 Total                   92.546             17.544             79.683
 Electronic               0.000              0.000              0.000
 Translational            0.889              2.981             38.658
 Rotational               0.889              2.981             25.144
 Vibrational             90.768             11.583             15.881
 Vibration     1          0.592              1.987             10.193
 Vibration     2          0.602              1.955              3.622

 Optimization completed.
    -- Stationary point found.
 Normal termination of Gaussian 09 at Sat Apr 16 12:29:49 2022.
