 Gaussian 09, Revision D.01,
 Gaussian 09:  AM64L-G09RevD.01 24-Apr-2013

 ------------------------------------
 #n ZINDO(NSTATE=10) pop=full gfinput
 ------------------------------------

 ----------
 UV-spectra
 ----------
 Symbolic Z-matrix:
 Charge =  0 Multiplicity = 1

                         Standard orientation:
 ---------------------------------------------------------------------
 Center     Atomic      Atomic             Coordinates (Angstroms)
 Number     Number       Type             X           Y           Z
 ---------------------------------------------------------------------
      1          6           0       -0.397596   -1.406188   -0.000030
      2          6           0       -1.418337   -0.351025   -0.000011
      3          6           0        1.028504   -1.006405   -0.000012
      4          8           0       -0.701383   -2.613493   -0.000042
      5          6           0        0.397595    1.406190   -0.000039
      6          6           0        1.418337    0.351026   -0.000013
      7          8           0        0.701380    2.613495   -0.000029
      8          6           0       -1.028505    1.006406   -0.000013
      9          6           0       -2.796119   -0.646746    0.000009
     10          6           0        2.796120    0.646745    0.000008
     11          6           0       -1.981913    2.021041    0.000006
     12          6           0        1.981912   -2.021041    0.000008
     13          6           0       -3.760502    0.393130    0.000029
     14          6           0       -3.348127    1.710551    0.000027
     15          6           0        3.348126   -1.710552    0.000030
     16          6           0        3.760502   -0.393131    0.000030
     17          1           0       -1.652780    3.073715    0.000002
     18          1           0        1.652778   -3.073715    0.000008
     19          1           0       -4.826645    0.119902    0.000046
     20          1           0       -4.091349    2.523342    0.000042
     21          1           0        4.826645   -0.119904    0.000047
     22          1           0        4.091347   -2.523344    0.000047
     23          8           0       -3.347520   -1.894675    0.000016
     24          1           0       -2.659783   -2.580400   -0.000005
     25          8           0        3.347524    1.894673    0.000011
     26          1           0        2.659792    2.580402   -0.000012
 ---------------------------------------------------------------------

 SCF Done:  E(RZINDO/S) =  -132.254741787     A.U. after   14 cycles

 Excitation energies and oscillator strengths:

 Excited State   1:      Singlet-A      2.6288 eV  471.64 nm  f=0.0000  <S**2>=0.000
      39 -> 46        -0.29386
      39 -> 49         0.20954
      40 -> 45         0.57369
      40 -> 50        -0.15569
 This state for optimization and/or second-order correction.
 Total Energy, E(CIS) =  -132.158135016
 Copying the excited state density for this state as the 1-particle RhoCI density.

 Excited State   2:      Singlet-A      2.6742 eV  463.64 nm  f=0.0000  <S**2>=0.000
      39 -> 45         0.56477
      39 -> 50        -0.16557
      40 -> 46        -0.30545
      40 -> 49         0.21028

 Excited State   3:      Singlet-A      3.5051 eV  353.73 nm  f=0.4333  <S**2>=0.000
      42 -> 46        -0.10956
      43 -> 47         0.16740
      44 -> 45         0.66164

 Excited State   4:      Singlet-A      3.6845 eV  336.51 nm  f=0.0000  <S**2>=0.000
      42 -> 45         0.20804
      42 -> 48         0.13411
      43 -> 45         0.61743
      44 -> 47         0.16367

 Excited State   5:      Singlet-A      3.8913 eV  318.62 nm  f=0.0000  <S**2>=0.000
      41 -> 47         0.10174
      42 -> 45         0.62900
      43 -> 45        -0.20362
      44 -> 46         0.14087

 Excited State   6:      Singlet-A      4.4457 eV  278.89 nm  f=0.1139  <S**2>=0.000
      41 -> 45         0.52991
      42 -> 47         0.10784
      43 -> 46         0.35232
      44 -> 48        -0.24098

 Excited State   7:      Singlet-A      4.8862 eV  253.74 nm  f=0.0000  <S**2>=0.000
      42 -> 45        -0.18974
      43 -> 48        -0.28957
      44 -> 46         0.58544

 Excited State   8:      Singlet-A      4.9575 eV  250.10 nm  f=0.0000  <S**2>=0.000
      41 -> 46        -0.33114
      42 -> 48         0.27227
      43 -> 45        -0.23870
      43 -> 50         0.22250
      44 -> 47         0.43119

 Excited State   9:      Singlet-A      4.9895 eV  248.49 nm  f=0.4095  <S**2>=0.000
      41 -> 48        -0.24048
      42 -> 46         0.46118
      43 -> 47        -0.33697
      44 -> 45         0.20585
      44 -> 50        -0.22191

 Excited State  10:      Singlet-A      5.1466 eV  240.90 nm  f=0.7875  <S**2>=0.000
      41 -> 45        -0.43587
      43 -> 46         0.47240
      44 -> 48        -0.24066

 The electronic state is 1-A.
 Alpha  occ. eigenvalues --   -1.75088  -1.69861  -1.61469  -1.58542  -1.53492
 Alpha  occ. eigenvalues --   -1.49035  -1.36196  -1.22504  -1.16583  -1.14875
 Alpha  occ. eigenvalues --   -1.04978  -1.02696  -1.00388  -0.89510  -0.87252
 Alpha  occ. eigenvalues --   -0.86808  -0.75619  -0.72937  -0.72755  -0.68375
 Alpha  occ. eigenvalues --   -0.66669  -0.64271  -0.61539  -0.60021  -0.58249
 Alpha  occ. eigenvalues --   -0.57559  -0.57156  -0.55523  -0.53041  -0.52399
 Alpha  occ. eigenvalues --   -0.51337  -0.50447  -0.50272  -0.48617  -0.48254
 Alpha  occ. eigenvalues --   -0.46477  -0.46465  -0.44815  -0.37436  -0.36563
 Alpha  occ. eigenvalues --   -0.36182  -0.35354  -0.33534  -0.32848
 Alpha virt. eigenvalues --   -0.06826  -0.01849  -0.00035   0.00790   0.04539
 Alpha virt. eigenvalues --    0.04779   0.05437   0.07996   0.08736   0.09206
 Alpha virt. eigenvalues --    0.10517   0.10608   0.11399   0.12209   0.12917

 Mulliken charges:
               1
     1  C    0.323744
     2  C   -0.013059
     3  C    0.014074
     4  O   -0.518785
     5  C    0.323744
     6  C   -0.013059
     7  O   -0.518786
     8  C    0.014074
     9  C    0.187175
    10  C    0.187175
    11  C   -0.010126
    12  C   -0.010126
    13  C   -0.024029
    14  C   -0.005902
    15  C   -0.005902
    16  C   -0.024028
    17  H    0.056888
    18  H    0.056888
    19  H    0.049145
    20  H    0.042325
    21  H    0.049145
    22  H    0.042325
    23  O   -0.343733
    24  H    0.242284
    25  O   -0.343733
    26  H    0.242284
 Sum of Mulliken charges =  -0.00000

 Dipole moment (field-independent basis, Debye):
    X=              0.0000    Y=              0.0000    Z=              0.0000  Tot=              0.0000
 N-N= 4.728338197593D+02 E-N= 0.000000000000D+00  KE=-1.140097346894D+03
 Orbital energies and kinetic energies (alpha):
                                 1                 2
   1         O                -1.750882        -14.233944
   2         O                -1.698612        -13.828555
   3         O                -1.614690        -14.004644
   4         O                -1.585421        -13.733053
   5         O                -1.534916        -13.814032
   6         O                -1.490350        -13.673450
   7         O                -1.361965        -13.858089

 Normal termination of Gaussian 09 at Tue Apr 12 00:35:52 2022.
