 Gaussian 09, Revision D.01,
 Gaussian 09:  AM64L-G09RevD.01 24-Apr-2013

 --------------------
 # hf/6-31G* opt freq
 --------------------

 -------------------------
 Optimisation de geometrie
 -------------------------
 Symbolic Z-matrix:
 Charge =  0 Multiplicity = 1

 SCF Done:  E(RHF) =  -79.2282818965     A.U. after    9 cycles
 SCF Done:  E(RHF) =  -79.2287480470     A.U. after    8 cycles
 SCF Done:  E(RHF) =  -79.2287548758     A.U. after    7 cycles
 Optimization completed.
    -- Stationary point found.
 Normal termination of Gaussian 09 at Sat Apr 16 12:15:03 2022.

 -----------------------------------------------------------------
 #N Geom=AllCheck Guess=TCheck SCRF=Check GenChk RHF/6-31G(d) Freq
 -----------------------------------------------------------------

 Structure from the checkpoint file:  "ethane-opt.chk"
 -------------------------
 Optimisation de geometrie
 -------------------------
 Charge =  0 Multiplicity = 1

                         Standard orientation:
 ---------------------------------------------------------------------
 Center     Atomic      Atomic             Coordinates (Angstroms)
 Number     Number       Type             X           Y           Z
 ---------------------------------------------------------------------
      1          1           0       -1.156714   -0.704913   -0.725993
      2          6           0       -0.763621   -0.000000   -0.000000
      3          1           0       -1.156716   -0.276275    0.973467
      4          1           0       -1.156723    0.981182   -0.247474
      5          6           0        0.763621    0.000000    0.000000
      6          1           0        1.156713    0.704875    0.726030
      7          1           0        1.156724   -0.981195    0.247421
      8          1           0        1.156716    0.276328   -0.973452
 ---------------------------------------------------------------------

 SCF Done:  E(RHF) =  -79.2287548758     A.U. after    1 cycles

 The electronic state is 1-A.
 Alpha  occ. eigenvalues --  -11.21018 -11.20959  -1.01876  -0.84366  -0.59784
 Alpha  occ. eigenvalues --   -0.59784  -0.50939  -0.48791  -0.48791
 Alpha virt. eigenvalues --    0.24301   0.30268   0.31801   0.31801   0.33912
 Alpha virt. eigenvalues --    0.33912   0.41318   0.70719   0.73868   0.73868
 Alpha virt. eigenvalues --    0.84705   0.84705   0.94358   1.15945   1.15945

 Mulliken charges:
               1
     1  H    0.158542
     2  C   -0.475627
     3  H    0.158542
     4  H    0.158542
     5  C   -0.475626
     6  H    0.158542
     7  H    0.158542
     8  H    0.158542
 Sum of Mulliken charges =  -0.00000

 Dipole moment (field-independent basis, Debye):
    X=              0.0000    Y=              0.0000    Z=             -0.0000  Tot=              0.0000
 Quadrupole moment (field-independent basis, Debye-Ang):
   XX=            -15.5339   YY=            -14.9162   ZZ=            -14.9163
   XY=             -0.0000   XZ=              0.0000   YZ=              0.0000

  Exact polarizability:  23.042  -0.000  21.966  -0.000   0.000  21.966
 Approx polarizability:  17.436  -0.000  18.520  -0.000   0.000  18.520

                      1                      2                      3
                      A                      A                      A
 Frequencies --    325.1408               889.2763               889.2766
 Red. masses --      1.0078                 1.0563                 1.0563
 Frc consts  --      0.0628                 0.4922                 0.4922
 IR Inten    --      0.0000                 2.5182                 2.5182
 Raman Activ --      0.0000                 0.0000                 0.0000

                      4                      5                      6
                      A                      A                      A
 Frequencies --   1061.6903              1337.4542              1337.4551
 Red. masses --      3.1301                 1.4549                 1.4549
 Frc consts  --      2.0788                 1.5333                 1.5333
 IR Inten    --      0.0000                 0.0000                 0.0000
 Raman Activ --     13.9000                 3.0969                 3.0969

                      7                      8                      9
                      A                      A                      A
 Frequencies --   1547.8508              1579.9696              1644.2453
 Red. masses --      1.1983                 1.2740                 1.0213
 Frc consts  --      1.6915                 1.8737                 1.6268
 IR Inten    --      0.1324                 0.0000                 0.0000
 Raman Activ --      0.0000                 4.2339                38.9521

                     10                     11                     12
                      A                      A                      A
 Frequencies --   1644.2458              1650.1833              1650.1838
 Red. masses --      1.0213                 1.0627                 1.0627
 Frc consts  --      1.6268                 1.7051                 1.7051
 IR Inten    --      0.0000                 5.7109                 5.7110
 Raman Activ --     38.9521                 0.0000                 0.0000

                     13                     14                     15
                      A                      A                      A
 Frequencies --   3199.8287              3205.9813              3249.3122
 Red. masses --      1.0341                 1.0380                 1.1032
 Frc consts  --      6.2381                 6.2860                 6.8627
 IR Inten    --     72.5614                 0.0000                 0.0000
 Raman Activ --      0.0000               221.4594               150.6434

                     16                     17                     18
                      A                      A                      A
 Frequencies --   3249.3173              3274.4520              3274.4573
 Red. masses --      1.1032                 1.1036                 1.1036
 Frc consts  --      6.8627                 6.9717                 6.9717
 IR Inten    --      0.0000               101.6839               101.6844
 Raman Activ --    150.6430                 0.0000                 0.0000

 - Thermochemistry -
 -------------------
 Temperature   298.150 Kelvin.  Pressure   1.00000 Atm.
 Atom     1 has atomic number  1 and mass   1.00783

 Molecular mass:    30.04695 amu.
 Principal axes and moments of inertia in atomic units:
                           1         2         3
     Eigenvalues --    22.11156  89.92484  89.92486
           X            1.00000  -0.00000  -0.00000
           Y            0.00000   1.00000  -0.00000
           Z            0.00000   0.00000   1.00000
 This molecule is an asymmetric top.
 Rotational symmetry number  1.
 Rotational temperatures (Kelvin)      3.91713     0.96318     0.96318
 Rotational constants (GHZ):          81.61979    20.06944    20.06944
 Zero-point vibrational energy     209408.2 (Joules/Mol)
                                   50.04977 (Kcal/Mol)
 Warning -- explicit consideration of   1 degrees of freedom as
           vibrations may cause significant error
 Vibrational temperatures:    467.80  1279.47  1279.47  1527.53  1924.30
          (Kelvin)           1924.30  2227.01  2273.22  2365.70  2365.70
                             2374.24  2374.24  4603.83  4612.69  4675.03
                             4675.04  4711.20  4711.21

 Zero-point correction=                           0.079759 (Hartree/Particle)
 Thermal correction to Energy=                    0.083160
 Thermal correction to Enthalpy=                  0.084105
 Thermal correction to Gibbs Free Energy=         0.056693
 Sum of electronic and zero-point Energies=            -79.148995
 Sum of electronic and thermal Energies=               -79.145594
 Sum of electronic and thermal Enthalpies=             -79.144650
 Sum of electronic and thermal Free Energies=          -79.172062

                     E (Thermal)             CV                S
                      KCal/Mol        Cal/Mol-Kelvin    Cal/Mol-Kelvin
 Total                   52.184              9.490             57.692
 Electronic               0.000              0.000              0.000
 Translational            0.889              2.981             36.134
 Rotational               0.889              2.981             19.820
 Vibrational             50.406              3.528              1.738
 Vibration     1          0.709              1.625              1.284

 Optimization completed.
    -- Stationary point found.
 Normal termination of Gaussian 09 at Sat Apr 16 12:15:06 2022.
