 Gaussian 09, Revision D.01,
 Gaussian 09:  AM64L-G09RevD.01 24-Apr-2013

 ---------------
 #n AM1 Opt freq
 ---------------

 -------------------------
 Optimisation de geometrie
 -------------------------
 Symbolic Z-matrix:
 Charge =  0 Multiplicity = 1

 SCF Done:  E(RAM1) =  0.297405619274E-01 A.U. after   11 cycles
 SCF Done:  E(RAM1) =  0.283752910659E-01 A.U. after    9 cycles
 SCF Done:  E(RAM1) =  0.282616813397E-01 A.U. after    8 cycles
 SCF Done:  E(RAM1) =  0.282392073559E-01 A.U. after    8 cycles
 Optimization completed.
    -- Stationary point found.
 Normal termination of Gaussian 09 at Sat Apr 16 12:29:54 2022.

 -------------------------------------------------------------
 #N Geom=AllCheck Guess=TCheck SCRF=Check GenChk RAM1/ZDO Freq
 -------------------------------------------------------------

 Structure from the checkpoint file:  "cyclopropane-opt.chk"
 -------------------------
 Optimisation de geometrie
 -------------------------
 Charge =  0 Multiplicity = 1

                         Standard orientation:
 ---------------------------------------------------------------------
 Center     Atomic      Atomic             Coordinates (Angstroms)
 Number     Number       Type             X           Y           Z
 ---------------------------------------------------------------------
      1          6           0        0.817649    0.287362    0.000000
      2          6           0       -0.159962   -0.851775    0.000001
      3          6           0       -0.657685    0.564420   -0.000001
      4          1           0        1.402294    0.492824    0.914010
      5          1           0        1.402296    0.492812   -0.914010
      6          1           0       -0.274339   -1.460823   -0.914009
      7          1           0       -0.274346   -1.460824    0.914009
      8          1           0       -1.127964    0.967986   -0.914010
      9          1           0       -1.127959    0.967981    0.914012
 ---------------------------------------------------------------------

 SCF Done:  E(RAM1) =  0.282392073556E-01 A.U. after    2 cycles

 The electronic state is 1-A.
 Alpha  occ. eigenvalues --   -1.39211  -0.84937  -0.84937  -0.61343  -0.56827
 Alpha  occ. eigenvalues --   -0.44906  -0.44905  -0.42174  -0.42174
 Alpha virt. eigenvalues --    0.11545   0.13699   0.15521   0.15521   0.17447
 Alpha virt. eigenvalues --    0.17447   0.18730   0.18743   0.18743

 Mulliken charges:
               1
     1  C   -0.215196
     2  C   -0.215202
     3  C   -0.215196
     4  H    0.107600
     5  H    0.107599
     6  H    0.107598
     7  H    0.107598
     8  H    0.107600
     9  H    0.107599
 Sum of Mulliken charges =  -0.00000

 Dipole moment (field-independent basis, Debye):
    X=             -0.0000    Y=             -0.0000    Z=             -0.0000  Tot=              0.0000
 N-N= 5.275631163095D+01 E-N=-8.246039394388D+01  KE=-1.096746481275D+01
  Exact polarizability:  24.217   0.000  24.216  -0.000   0.000  22.606
 Approx polarizability:  15.028   0.000  15.027  -0.000   0.000  13.731
 Calling FoFJK, ICntrl=    100127 FMM=F ISym2X=0 I1Cent= 0 IOpClX= 0 NMat=1 NMatS=1 NMatT=0.
 Full mass-weighted force constant matrix:
 Low frequencies ---   -0.0122   -0.0013   -0.0004    9.0416   17.3723   17.6498
 Low frequencies ---  785.6636  785.6703  860.8139
 Diagonal vibrational polarizability:
        0.3145385       0.3145937       0.0741430
 Harmonic frequencies (cm**-1), IR intensities (KM/Mole), Raman scattering

                      1                      2                      3
                      A                      A                      A
 Frequencies --    785.6636               785.6703               860.8139
 Red. masses --      1.0088                 1.0088                 1.0540
 Frc consts  --      0.3669                 0.3669                 0.4602
 IR Inten    --      0.0000                 0.0000                 0.2442

                      4                      5                      6
                      A                      A                      A
 Frequencies --    969.0187              1024.7139              1024.7350
 Red. masses --      1.0078                 1.9214                 1.9211
 Frc consts  --      0.5576                 1.1887                 1.1885
 IR Inten    --      0.0000                 8.2391                 8.2385

                      7                      8                      9
                      A                      A                      A
 Frequencies --   1154.1929              1154.1951              1156.9468
 Red. masses --      1.5401                 1.5401                 1.8212
 Frc consts  --      1.2088                 1.2088                 1.4363
 IR Inten    --      0.0000                 0.0000                 1.8882

                     10                     11                     12
                      A                      A                      A
 Frequencies --   1156.9544              1213.7658              1403.2031
 Red. masses --      1.8214                 1.4458                 1.0365
 Frc consts  --      1.4365                 1.2549                 1.2025
 IR Inten    --      1.8871                 0.0000                 0.0000

                     13                     14                     15
                      A                      A                      A
 Frequencies --   1435.1532              1435.1551              1615.5813
 Red. masses --      1.1023                 1.1023                 6.6436
 Frc consts  --      1.3377                 1.3377                10.2168
 IR Inten    --      2.3035                 2.3031                 0.0000

                     16                     17                     18
                      A                      A                      A
 Frequencies --   3138.1109              3138.1176              3167.8013
 Red. masses --      1.0943                 1.0943                 1.1049
 Frc consts  --      6.3491                 6.3491                 6.5329
 IR Inten    --      0.0000                 0.0000                24.3403

                     19                     20                     21
                      A                      A                      A
 Frequencies --   3193.8797              3206.5587              3206.5658
 Red. masses --      1.0498                 1.0498                 1.0498
 Frc consts  --      6.3097                 6.3594                 6.3595
 IR Inten    --      0.0000                13.5156                13.5151

 - Thermochemistry -
 -------------------
 Temperature   298.150 Kelvin.  Pressure   1.00000 Atm.
 Atom     1 has atomic number  6 and mass  12.00000

 Molecular mass:    42.04695 amu.
 Principal axes and moments of inertia in atomic units:
                           1         2         3
     Eigenvalues --    90.17412  90.17582 144.26998
           X            0.99964  -0.02668  -0.00000
           Y            0.02668   0.99964   0.00000
           Z            0.00000  -0.00000   1.00000
 This molecule is an asymmetric top.
 Rotational symmetry number  1.
 Rotational temperatures (Kelvin)      0.96052     0.96050     0.60036
 Rotational constants (GHZ):          20.01396    20.01358    12.50947
 Zero-point vibrational energy     216684.4 (Joules/Mol)
                                   51.78881 (Kcal/Mol)
 Vibrational temperatures:   1130.39  1130.40  1238.52  1394.20  1474.33
          (Kelvin)           1474.36  1660.62  1660.63  1664.59  1664.60
                             1746.34  2018.89  2064.86  2064.87  2324.46
                             4515.04  4515.05  4557.75  4595.27  4613.52
                             4613.53

 Zero-point correction=                           0.082531 (Hartree/Particle)
 Thermal correction to Energy=                    0.085819
 Thermal correction to Enthalpy=                  0.086763
 Thermal correction to Gibbs Free Energy=         0.058257
 Sum of electronic and zero-point Energies=              0.110770
 Sum of electronic and thermal Energies=                 0.114058
 Sum of electronic and thermal Enthalpies=               0.115002
 Sum of electronic and thermal Free Energies=            0.086497

                     E (Thermal)             CV                S
                      KCal/Mol        Cal/Mol-Kelvin    Cal/Mol-Kelvin
 Total                   53.852             10.463             59.995
 Electronic               0.000              0.000              0.000
 Translational            0.889              2.981             37.136
 Rotational               0.889              2.981             21.689
 Vibrational             52.075              4.501              1.171

 Optimization completed.
    -- Stationary point found.
 Normal termination of Gaussian 09 at Sat Apr 16 12:29:55 2022.
