 Gaussian 09, Revision D.01,
 Gaussian 09:  AM64L-G09RevD.01 24-Apr-2013

 -----------------
 #n AM1 freq=RAMAN
 -----------------

 ----------
 UV-spectra
 ----------
 Symbolic Z-matrix:
 Charge =  0 Multiplicity = 1

                         Standard orientation:
 ---------------------------------------------------------------------
 Center     Atomic      Atomic             Coordinates (Angstroms)
 Number     Number       Type             X           Y           Z
 ---------------------------------------------------------------------
      1          6           0       -1.814259    0.165231   -0.000006
      2          6           0       -2.676579    1.284597   -0.000040
      3          6           0       -2.375707   -1.127381    0.000035
      4          7           0       -0.408540    0.460161   -0.000013
      5          6           0       -4.056092    1.102455   -0.000032
      6          6           0       -3.758770   -1.291219    0.000044
      7          6           0       -4.601737   -0.181121    0.000010
      8          7           0        0.408595   -0.460331   -0.000010
      9          6           0        1.814279   -0.165324   -0.000005
     10          6           0        4.601714    0.181265    0.000010
     11          6           0        4.056181   -1.102358   -0.000033
     12          6           0        3.758642    1.291290    0.000044
     13          6           0        2.676682   -1.284614   -0.000040
     14          6           0        2.375601    1.127325    0.000035
     15          1           0       -2.262008    2.305259   -0.000074
     16          1           0       -1.729591   -2.019495    0.000061
     17          1           0       -4.719153    1.980639   -0.000059
     18          1           0       -4.185756   -2.305330    0.000077
     19          1           0       -5.693321   -0.316343    0.000017
     20          1           0        5.693286    0.316591    0.000016
     21          1           0        4.719309   -1.980492   -0.000060
     22          1           0        4.185540    2.305439    0.000076
     23          1           0        2.262197   -2.305312   -0.000074
     24          1           0        1.729380    2.019362    0.000062
 ---------------------------------------------------------------------

 SCF Done:  E(RAM1) =  0.159147470516     A.U. after   15 cycles

 The electronic state is 1-A.
 Alpha  occ. eigenvalues --   -1.47795  -1.44531  -1.39244  -1.20063  -1.16193
 Alpha  occ. eigenvalues --   -1.16183  -1.12178  -0.96566  -0.86636  -0.85849
 Alpha  occ. eigenvalues --   -0.83975  -0.77258  -0.67584  -0.64576  -0.62116
 Alpha  occ. eigenvalues --   -0.60782  -0.57775  -0.56468  -0.56110  -0.54298
 Alpha  occ. eigenvalues --   -0.53922  -0.52569  -0.52456  -0.50214  -0.47100
 Alpha  occ. eigenvalues --   -0.46475  -0.46163  -0.44172  -0.44130  -0.37371
 Alpha  occ. eigenvalues --   -0.36202  -0.36185  -0.35981  -0.33473
 Alpha virt. eigenvalues --   -0.02838   0.01503   0.01504   0.01529   0.06131
 Alpha virt. eigenvalues --    0.08593   0.10232   0.11191   0.14026   0.14027
 Alpha virt. eigenvalues --    0.14251   0.14287   0.14495   0.14641   0.15573

 Mulliken charges:
               1
     1  C   -0.048974
     2  C   -0.082095
     3  C   -0.106342
     4  N   -0.070320
     5  C   -0.142966
     6  C   -0.139666
     7  C   -0.111039
     8  N   -0.070305
     9  C   -0.048980
    10  C   -0.111038
    11  C   -0.142966
    12  C   -0.139666
    13  C   -0.082094
    14  C   -0.106343
    15  H    0.146269
    16  H    0.150006
    17  H    0.135701
    18  H    0.135294
    19  H    0.134126
    20  H    0.134127
    21  H    0.135701
    22  H    0.135293
    23  H    0.146269
    24  H    0.150008
 Sum of Mulliken charges =  -0.00000

 Dipole moment (field-independent basis, Debye):
    X=             -0.0000    Y=              0.0001    Z=              0.0000  Tot=              0.0001
 N-N= 4.084883703090D+02 E-N=-7.226410791052D+02  KE=-4.556551114977D+01
  Exact polarizability: 254.475  -6.897 135.750   0.000  -0.000  19.739
 Approx polarizability: 168.315  -7.856 124.061   0.000  -0.000  15.431
 Calling FoFJK, ICntrl=    100127 FMM=F ISym2X=0 I1Cent= 0 IOpClX= 0 NMat=1 NMatS=1 NMatT=0.
 Full mass-weighted force constant matrix:
 Low frequencies ---   -3.6072   -0.0057   -0.0016    0.0440    2.2901    2.8128
 Low frequencies ---    5.9406   43.9437   60.4334
 ******    1 imaginary frequencies (negative Signs) ******
 Diagonal vibrational polarizability:
        5.6166389       3.5702060      29.5937005

                      1                      2                      3
                      A                      A                      A
 Frequencies --     -3.5719                43.9267                60.4334
 Red. masses --      3.6134                 8.6263                 5.3105
 Frc consts  --      0.0000                 0.0098                 0.0114
 IR Inten    --      0.0050                 0.0000                 1.0719
 Raman Activ --      0.0000                 0.4424                 0.0000

                      4                      5                      6
                      A                      A                      A
 Frequencies --     81.3692               188.2253               246.8896
 Red. masses --      4.8873                 4.3603                 5.8032
 Frc consts  --      0.0191                 0.0910                 0.2084
 IR Inten    --      1.1233                 0.0000                 0.0000
 Raman Activ --      0.0000                24.3891                 6.4825

                      7                      8                      9
                      A                      A                      A
 Frequencies --    278.8142               335.9772               367.9850
 Red. masses --      4.1222                 5.3229                 2.3090
 Frc consts  --      0.1888                 0.3540                 0.1842
 IR Inten    --      1.8534                 0.0000                 0.0011
 Raman Activ --      0.0000                 2.0569                 0.0000

                     10                     11                     12
                      A                      A                      A
 Frequencies --    368.2764               477.5187               531.4017
 Red. masses --      2.3110                 2.6834                 2.5391
 Frc consts  --      0.1847                 0.3605                 0.4225
 IR Inten    --      0.0000                 0.0000                 2.0856
 Raman Activ --      0.1476                 1.4657                 0.0000

                     13                     14                     15
                      A                      A                      A
 Frequencies --    552.4146               582.3999               639.9000
 Red. masses --      7.3841                 8.4129                 1.9871
 Frc consts  --      1.3276                 1.6813                 0.4794
 IR Inten    --     13.6158                 6.7577                 0.0000
 Raman Activ --      0.0000                 0.0000                13.1765

                     16                     17                     18
                      A                      A                      A
 Frequencies --    653.5869               657.4754               671.7643
 Red. masses --      6.7268                 6.7648                 1.8793
 Frc consts  --      1.6930                 1.7229                 0.4997
 IR Inten    --      0.0000                 0.2694                83.2709
 Raman Activ --     17.9307                 0.0000                 0.0000

                     19                     20                     21
                      A                      A                      A
 Frequencies --    724.4302               803.1985               819.5760
 Red. masses --      7.0799                 1.2884                 1.4291
 Frc consts  --      2.1891                 0.4897                 0.5656
 IR Inten    --      0.0000                 0.0000               126.7856
 Raman Activ --      7.1937                 0.7625                 0.0000

                     22                     23                     24
                      A                      A                      A
 Frequencies --    887.7258               888.3988               941.8369
 Red. masses --      1.2521                 1.2517                 6.5995
 Frc consts  --      0.5814                 0.5821                 3.4492
 IR Inten    --      0.0003                 0.0000                 4.3213
 Raman Activ --      0.0000                12.5511                 0.0000

                     25                     26                     27
                      A                      A                      A
 Frequencies --    957.1697               963.4879               988.7608
 Red. masses --      1.5259                 1.5958                 7.6186
 Frc consts  --      0.8237                 0.8728                 4.3884
 IR Inten    --      0.0000                10.0565                 0.0000
 Raman Activ --     16.3041                 0.0000                25.7175

                     28                     29                     30
                      A                      A                      A
 Frequencies --    989.9648               990.2059              1008.1587
 Red. masses --      1.5570                 1.5561                 1.7502
 Frc consts  --      0.8990                 0.8990                 1.0481
 IR Inten    --      0.0127                 0.0000                 0.0000
 Raman Activ --      0.0000                 0.0770                16.9390

                     31                     32                     33
                      A                      A                      A
 Frequencies --   1008.6954              1111.5352              1112.9081
 Red. masses --      1.7644                 2.5042                 2.3845
 Frc consts  --      1.0577                 1.8229                 1.7401
 IR Inten    --      0.0553                 0.0001                 1.4479
 Raman Activ --      0.0000                 6.5868                 0.0003

                     34                     35                     36
                      A                      A                      A
 Frequencies --   1184.7623              1187.0000              1196.5489
 Red. masses --      1.2698                 1.2400                 1.2465
 Frc consts  --      1.0502                 1.0294                 1.0515
 IR Inten    --      5.9838                 0.0000                 0.0000
 Raman Activ --      0.0001                28.7931                32.0051

                     37                     38                     39
                      A                      A                      A
 Frequencies --   1197.6050              1198.7890              1200.2239
 Red. masses --      1.1203                 1.8596                 1.5610
 Frc consts  --      0.9467                 1.5745                 1.3249
 IR Inten    --      0.1125                 1.2726                 0.0000
 Raman Activ --      0.0000                 0.0000                19.2970

                     40                     41                     42
                      A                      A                      A
 Frequencies --   1256.7806              1257.0507              1331.9898
 Red. masses --      1.0543                 1.0511                 1.3744
 Frc consts  --      0.9811                 0.9786                 1.4367
 IR Inten    --      5.5871                 0.0035                 0.5653
 Raman Activ --      0.0224                35.8974                 0.0165

                     43                     44                     45
                      A                      A                      A
 Frequencies --   1332.3590              1368.5507              1373.4658
 Red. masses --      1.4133                 3.8637                 3.2979
 Frc consts  --      1.4782                 4.2636                 3.6654
 IR Inten    --      0.0001                 0.0001                 8.0957
 Raman Activ --     70.6107               406.2143                 0.0036

                     46                     47                     48
                      A                      A                      A
 Frequencies --   1410.1297              1451.8071              1565.9208
 Red. masses --      4.6158                 4.8695                 4.5341
 Frc consts  --      5.4078                 6.0471                 6.5505
 IR Inten    --      0.0000                64.7353                25.7770
 Raman Activ --   1126.6992                 0.0002                 0.0000

                     49                     50                     51
                      A                      A                      A
 Frequencies --   1575.9766              1601.6089              1626.3873
 Red. masses --      4.4341                 4.6963                 5.4496
 Frc consts  --      6.4887                 7.0977                 8.4930
 IR Inten    --      0.0000                 0.0000                 1.2674
 Raman Activ --     17.2449               886.0935                 0.0005

                     52                     53                     54
                      A                      A                      A
 Frequencies --   1745.2008              1751.7986              1766.6012
 Red. masses --     10.4748                10.6769                10.6045
 Frc consts  --     18.7968                19.3047                19.4993
 IR Inten    --      2.0686                 0.0000                 0.0000
 Raman Activ --      0.0002                 6.9201              2016.7050

                     55                     56                     57
                      A                      A                      A
 Frequencies --   1772.3311              2039.9119              3175.6713
 Red. masses --     10.6151                13.9380                 1.0772
 Frc consts  --     19.6456                34.1723                 6.4004
 IR Inten    --     13.8396                 0.0000                 0.0011
 Raman Activ --      0.0052              2514.9090               159.6441

                     58                     59                     60
                      A                      A                      A
 Frequencies --   3176.0214              3177.3552              3177.5958
 Red. masses --      1.0780                 1.0775                 1.0783
 Frc consts  --      6.4068                 6.4093                 6.4151
 IR Inten    --     39.6311                36.2460                 0.0034
 Raman Activ --      0.0053                 0.0049                60.0255

                     61                     62                     63
                      A                      A                      A
 Frequencies --   3184.5756              3184.6843              3188.0779
 Red. masses --      1.0775                 1.0776                 1.0803
 Frc consts  --      6.4385                 6.4392                 6.4693
 IR Inten    --     28.5701                 0.0025                 0.0083
 Raman Activ --      0.0311               348.3560               234.0767

                     64                     65                     66
                      A                      A                      A
 Frequencies --   3188.3313              3198.1491              3198.6448
 Red. masses --      1.0805                 1.0889                 1.0889
 Frc consts  --      6.4712                 6.5620                 6.5639
 IR Inten    --    189.6554               116.1781                 0.0009
 Raman Activ --      0.0103                 0.0068               934.7873

 - Thermochemistry -
 -------------------
 Temperature   298.150 Kelvin.  Pressure   1.00000 Atm.
 Atom     1 has atomic number  6 and mass  12.00000

 Molecular mass:   182.08440 amu.
 Principal axes and moments of inertia in atomic units:
                           1         2         3
     Eigenvalues --   658.573676410.394627068.96829
           X            1.00000   0.00047  -0.00000
           Y           -0.00047   1.00000   0.00000
           Z            0.00000  -0.00000   1.00000
 This molecule is an asymmetric top.
 Rotational symmetry number  1.
 Warning -- assumption of classical behavior for rotation
           may cause significant error
 Rotational temperatures (Kelvin)      0.13152     0.01351     0.01225
 Rotational constants (GHZ):           2.74038     0.28153     0.25530
    1 imaginary frequencies ignored.
 Zero-point vibrational energy     515448.8 (Joules/Mol)
                                  123.19523 (Kcal/Mol)
 Warning -- explicit consideration of  13 degrees of freedom as
           vibrations may cause significant error
 Vibrational temperatures:     63.20    86.95   117.07   270.81   355.22
          (Kelvin)            401.15   483.40   529.45   529.87   687.04
                              764.57   794.80   837.94   920.67   940.36
                              945.96   966.52  1042.29  1155.62  1179.19
                             1277.24  1278.21  1355.09  1377.15  1386.24
                             1422.60  1424.34  1424.68  1450.51  1451.29
                             1599.25  1601.22  1704.61  1707.83  1721.56
                             1723.08  1724.79  1726.85  1808.22  1808.61
                             1916.43  1916.96  1969.04  1976.11  2028.86
                             2088.82  2253.01  2267.48  2304.36  2340.01
                             2510.95  2520.44  2541.74  2549.99  2934.97
                             4569.08  4569.58  4571.50  4571.85  4581.89
                             4582.04  4586.93  4587.29  4601.42  4602.13

 Zero-point correction=                           0.196324 (Hartree/Particle)
 Thermal correction to Energy=                    0.206427
 Thermal correction to Enthalpy=                  0.207371
 Thermal correction to Gibbs Free Energy=         0.159026
 Sum of electronic and zero-point Energies=              0.355472
 Sum of electronic and thermal Energies=                 0.365575
 Sum of electronic and thermal Enthalpies=               0.366519
 Sum of electronic and thermal Free Energies=            0.318173

                     E (Thermal)             CV                S
                      KCal/Mol        Cal/Mol-Kelvin    Cal/Mol-Kelvin
 Total                  129.535             39.686            101.753
 Electronic               0.000              0.000              0.000
 Translational            0.889              2.981             41.504
 Rotational               0.889              2.981             31.768
 Vibrational            127.758             33.724             28.480
 Vibration     1          0.595              1.980              5.074
 Vibration     2          0.597              1.973              4.443
 Vibration     3          0.600              1.962              3.858
 Vibration     4          0.633              1.856              2.245
 Vibration     5          0.661              1.768              1.753
 Vibration     6          0.679              1.713              1.541
 Vibration     7          0.717              1.604              1.231
 Vibration     8          0.741              1.538              1.088
 Vibration     9          0.741              1.537              1.087
 Vibration    10          0.834              1.300              0.717
 Vibration    11          0.886              1.181              0.584
 Vibration    12          0.908              1.134              0.539
 Vibration    13          0.939              1.069              0.481

 Optimization completed.
    -- Stationary point found.
 Normal termination of Gaussian 09 at Tue Apr 12 01:36:41 2022.
