 Gaussian 09, Revision D.01,
 Gaussian 09:  AM64L-G09RevD.01 24-Apr-2013

 --------------------
 # hf/6-31G* opt freq
 --------------------

 -------------------------
 Optimisation de geometrie
 -------------------------
 Symbolic Z-matrix:
 Charge =  0 Multiplicity = 1

 SCF Done:  E(RHF) =  -156.109656679     A.U. after   11 cycles
 SCF Done:  E(RHF) =  -156.110634081     A.U. after   10 cycles
 SCF Done:  E(RHF) =  -156.110666194     A.U. after    9 cycles
 SCF Done:  E(RHF) =  -156.110666961     A.U. after    7 cycles
 Optimization completed.
    -- Stationary point found.
 Normal termination of Gaussian 09 at Sat Apr 16 11:54:03 2022.

 -----------------------------------------------------------------
 #N Geom=AllCheck Guess=TCheck SCRF=Check GenChk RHF/6-31G(d) Freq
 -----------------------------------------------------------------

 Structure from the checkpoint file:  "2-methyl-1-Propene-opt.chk"
 -------------------------
 Optimisation de geometrie
 -------------------------
 Charge =  0 Multiplicity = 1

                         Standard orientation:
 ---------------------------------------------------------------------
 Center     Atomic      Atomic             Coordinates (Angstroms)
 Number     Number       Type             X           Y           Z
 ---------------------------------------------------------------------
      1          6           0       -1.275456   -0.676845    0.000001
      2          6           0        0.000000    0.127922   -0.000013
      3          6           0        1.275459   -0.676838    0.000003
      4          6           0       -0.000005    1.449007   -0.000005
      5          1           0       -1.324247   -1.322365   -0.873875
      6          1           0       -1.323851   -1.323047    0.873393
      7          1           0       -2.152144   -0.040151    0.000444
      8          1           0        1.324275   -1.322294    0.873926
      9          1           0        1.323837   -1.323103   -0.873341
     10          1           0        2.152145   -0.040141   -0.000507
     11          1           0        0.914806    2.015814   -0.000038
     12          1           0       -0.914819    2.015807    0.000082
 ---------------------------------------------------------------------

 SCF Done:  E(RHF) =  -156.110666961     A.U. after    1 cycles

 The electronic state is 1-A.
 Alpha  occ. eigenvalues --  -11.23399 -11.21601 -11.21598 -11.20502  -1.08732
 Alpha  occ. eigenvalues --   -0.94116  -0.92673  -0.71769  -0.61828  -0.60888
 Alpha  occ. eigenvalues --   -0.58945  -0.53798  -0.52136  -0.51459  -0.47436
 Alpha  occ. eigenvalues --   -0.34515
 Alpha virt. eigenvalues --    0.19388   0.23576   0.28619   0.30299   0.30556
 Alpha virt. eigenvalues --    0.32991   0.33071   0.34459   0.38196   0.39740
 Alpha virt. eigenvalues --    0.48061   0.54648   0.71654   0.73774   0.73971

 Mulliken charges:
               1
     1  C   -0.509155
     2  C    0.108052
     3  C   -0.509155
     4  C   -0.439080
     5  H    0.167024
     6  H    0.167012
     7  H    0.173188
     8  H    0.167025
     9  H    0.167010
    10  H    0.173188
    11  H    0.167445
    12  H    0.167445
 Sum of Mulliken charges =  -0.00000

 Dipole moment (field-independent basis, Debye):
    X=              0.0000    Y=             -0.4539    Z=              0.0001  Tot=              0.4539
 Quadrupole moment (field-independent basis, Debye-Ang):
   XX=            -25.8087   YY=            -26.1255   ZZ=            -28.1806
   XY=             -0.0000   XZ=             -0.0001   YZ=              0.0001

  Exact polarizability:  40.356  -0.000  54.758  -0.000   0.000  27.948
 Approx polarizability:  32.504  -0.000  45.402  -0.000   0.000  26.432

                      1                      2                      3
                      A                      A                      A
 Frequencies --    179.7364               221.4516               402.7954
 Red. masses --      1.0246                 1.0772                 2.2005
 Frc consts  --      0.0195                 0.0311                 0.2103
 IR Inten    --      0.0000                 0.3183                 0.2637
 Raman Activ --      0.0215                 0.2629                 0.8744

                      4                      5                      6
                      A                      A                      A
 Frequencies --    470.1382               475.8137               770.9032
 Red. masses --      2.1155                 2.1671                 1.0090
 Frc consts  --      0.2755                 0.2891                 0.3533
 IR Inten    --      1.6386                 5.6796                 0.0000
 Raman Activ --      1.2744                 7.7604                 9.3487

                      7                      8                      9
                      A                      A                      A
 Frequencies --    864.5945              1046.3501              1048.2907
 Red. masses --      3.4390                 1.6344                 1.3242
 Frc consts  --      1.5146                 1.0543                 0.8573
 IR Inten    --      0.0088                 0.1062                53.3550
 Raman Activ --     13.4523                 4.7998                 1.6257

                     10                     11                     12
                      A                      A                      A
 Frequencies --   1069.6324              1120.6267              1187.7587
 Red. masses --      1.3047                 1.2308                 1.4368
 Frc consts  --      0.8795                 0.9107                 1.1942
 IR Inten    --      0.1777                 0.0000                 2.0289
 Raman Activ --      0.2096                 1.2030                12.8655

                     13                     14                     15
                      A                      A                      A
 Frequencies --   1219.3255              1411.3122              1559.6135
 Red. masses --      1.6766                 2.4487                 1.1822
 Frc consts  --      1.4686                 2.8737                 1.6943
 IR Inten    --      0.0214                 3.4407                 0.6704
 Raman Activ --      0.7730                 0.4139                 7.4738

                     16                     17                     18
                      A                      A                      A
 Frequencies --   1567.0593              1591.7758              1617.2344
 Red. masses --      1.3884                 1.2197                 1.0482
 Frc consts  --      2.0088                 1.8208                 1.6152
 IR Inten    --      4.2786                 0.0434                 0.0000
 Raman Activ --      7.0040                46.1515                32.3881

                     19                     20                     21
                      A                      A                      A
 Frequencies --   1631.7949              1635.0598              1648.2159
 Red. masses --      1.0459                 1.0434                 1.0649
 Frc consts  --      1.6409                 1.6435                 1.7044
 IR Inten    --      3.4099                13.2647                 8.4815
 Raman Activ --      0.5683                 0.0012                16.9908

                     22                     23                     24
                      A                      A                      A
 Frequencies --   1888.2085              3187.1469              3194.0529
 Red. masses --      4.8275                 1.0390                 1.0392
 Frc consts  --     10.1408                 6.2182                 6.2463
 IR Inten    --     17.5611                22.8154                54.0442
 Raman Activ --     26.4547                 3.7900               246.7795

                     25                     26                     27
                      A                      A                      A
 Frequencies --   3232.6161              3238.3015              3280.7404
 Red. masses --      1.1013                 1.1010                 1.1006
 Frc consts  --      6.7805                 6.8023                 6.9796
 IR Inten    --      0.0000                78.0158                34.7097
 Raman Activ --      9.7587               162.3171                38.2130

                     28                     29                     30
                      A                      A                      A
 Frequencies --   3282.9212              3326.9883              3400.1252
 Red. masses --      1.1008                 1.0627                 1.1166
 Frc consts  --      6.9901                 6.9305                 7.6059
 IR Inten    --     28.2661                13.3081                26.6263
 Raman Activ --     73.9509               101.9688                70.8823

 - Thermochemistry -
 -------------------
 Temperature   298.150 Kelvin.  Pressure   1.00000 Atm.
 Atom     1 has atomic number  6 and mass  12.00000

 Molecular mass:    56.06260 amu.
 Principal axes and moments of inertia in atomic units:
                           1         2         3
     Eigenvalues --   195.26105 215.01368 388.29958
           X            1.00000   0.00000  -0.00000
           Y           -0.00000   1.00000   0.00000
           Z            0.00000  -0.00000   1.00000
 This molecule is an asymmetric top.
 Rotational symmetry number  1.
 Rotational temperatures (Kelvin)      0.44358     0.40283     0.22306
 Rotational constants (GHZ):           9.24271     8.39361     4.64781
 Zero-point vibrational energy     303675.5 (Joules/Mol)
                                   72.58019 (Kcal/Mol)
 Warning -- explicit consideration of   5 degrees of freedom as
           vibrations may cause significant error
 Vibrational temperatures:    258.60   318.62   579.53   676.42   684.59
          (Kelvin)           1109.16  1243.96  1505.46  1508.25  1538.96
                             1612.33  1708.92  1754.34  2030.56  2243.93
                             2254.65  2290.21  2326.84  2347.79  2352.48
                             2371.41  2716.71  4585.59  4595.52  4651.01
                             4659.19  4720.25  4723.39  4786.79  4892.02

 Zero-point correction=                           0.115664 (Hartree/Particle)
 Thermal correction to Energy=                    0.120739
 Thermal correction to Enthalpy=                  0.121683
 Thermal correction to Gibbs Free Energy=         0.088511
 Sum of electronic and zero-point Energies=           -155.995003
 Sum of electronic and thermal Energies=              -155.989928
 Sum of electronic and thermal Enthalpies=            -155.988984
 Sum of electronic and thermal Free Energies=         -156.022156

                     E (Thermal)             CV                S
                      KCal/Mol        Cal/Mol-Kelvin    Cal/Mol-Kelvin
 Total                   75.765             17.085             69.815
 Electronic               0.000              0.000              0.000
 Translational            0.889              2.981             37.993
 Rotational               0.889              2.981             24.303
 Vibrational             73.987             11.123              7.519
 Vibration     1          0.629              1.867              2.331
 Vibration     2          0.648              1.808              1.947
 Vibration     3          0.768              1.464              0.952
 Vibration     4          0.827              1.316              0.737
 Vibration     5          0.832              1.304              0.721

 Optimization completed.
    -- Stationary point found.
 Normal termination of Gaussian 09 at Sat Apr 16 11:54:11 2022.
