 Gaussian 09, Revision D.01,
 Gaussian 09:  AM64L-G09RevD.01 24-Apr-2013

 ----------
 #n PM6 Opt
 ----------

 -------------------------
 Optimisation de geometrie
 -------------------------
 Symbolic Z-matrix:
 Charge =  0 Multiplicity = 1

 SCF Done:  E(RPM6) = -0.162442672376     A.U. after   14 cycles
 SCF Done:  E(RPM6) = -0.165342458817     A.U. after   12 cycles
 SCF Done:  E(RPM6) = -0.166109423917     A.U. after   11 cycles
 SCF Done:  E(RPM6) = -0.166545445344     A.U. after   12 cycles
 SCF Done:  E(RPM6) = -0.166691105031     A.U. after   12 cycles
 SCF Done:  E(RPM6) = -0.166735319736     A.U. after   11 cycles
 SCF Done:  E(RPM6) = -0.166768349279     A.U. after   11 cycles
 SCF Done:  E(RPM6) = -0.166821345842     A.U. after   11 cycles
 SCF Done:  E(RPM6) = -0.166888321193     A.U. after   12 cycles
 SCF Done:  E(RPM6) = -0.166925229357     A.U. after   11 cycles
 SCF Done:  E(RPM6) = -0.166931162267     A.U. after   11 cycles
 SCF Done:  E(RPM6) = -0.166933444448     A.U. after    9 cycles
 SCF Done:  E(RPM6) = -0.166937180141     A.U. after   11 cycles
 SCF Done:  E(RPM6) = -0.166937973670     A.U. after   10 cycles
 SCF Done:  E(RPM6) = -0.166938843368     A.U. after   10 cycles
 SCF Done:  E(RPM6) = -0.166939637605     A.U. after    9 cycles
 SCF Done:  E(RPM6) = -0.166940170216     A.U. after    9 cycles
 SCF Done:  E(RPM6) = -0.166940217809     A.U. after    8 cycles
 Optimization completed.
    -- Stationary point found.

                         Standard orientation:
 ---------------------------------------------------------------------
 Center     Atomic      Atomic             Coordinates (Angstroms)
 Number     Number       Type             X           Y           Z
 ---------------------------------------------------------------------
      1          6           0       -0.481731    0.497208   -0.682074
      2          6           0       -1.536410    0.569725    0.421793
      3          8           0       -2.640067   -0.312096    0.159655
      4          6           0        0.487223   -0.678494   -0.529974
      5          6           0        1.537658   -0.444529    0.557011
      6          8           0        2.516428    0.423459   -0.055902
      7          1           0        0.099731    1.443382   -0.712212
      8          1           0       -0.992733    0.435343   -1.665242
      9          1           0       -2.030805    1.559916    0.456565
     10          1           0       -1.127242    0.329661    1.418838
     11          1           0       -2.323038   -1.220260   -0.001807
     12          1           0        1.020170   -0.832544   -1.495352
     13          1           0       -0.059954   -1.617535   -0.328042
     14          1           0        2.041005   -1.383308    0.850145
     15          1           0        1.125967    0.053107    1.451679
     16          1           0        3.195571    0.677876    0.594870
 ---------------------------------------------------------------------

 The electronic state is 1-A.
 Alpha  occ. eigenvalues --   -1.10994  -1.09193  -1.02009  -0.92799  -0.84161
 Alpha  occ. eigenvalues --   -0.74438  -0.68002  -0.64803  -0.59729  -0.57786
 Alpha  occ. eigenvalues --   -0.54759  -0.52754  -0.49415  -0.48896  -0.45757
 Alpha  occ. eigenvalues --   -0.44138  -0.43149  -0.38974  -0.38409
 Alpha virt. eigenvalues --    0.09163   0.10121   0.13100   0.13842   0.14752
 Alpha virt. eigenvalues --    0.18603   0.19065   0.19314   0.19736   0.20187
 Alpha virt. eigenvalues --    0.20445   0.21029   0.21783   0.22759   0.23224

 Mulliken charges:
               1
     1  C   -0.330429
     2  C    0.012248
     3  O   -0.554881
     4  C   -0.274619
     5  C    0.008413
     6  O   -0.558355
     7  H    0.165424
     8  H    0.158060
     9  H    0.140735
    10  H    0.109788
    11  H    0.304493
    12  H    0.163437
    13  H    0.132996
    14  H    0.108560
    15  H    0.110587
    16  H    0.303544
 Sum of Mulliken charges =   0.00000

 Dipole moment (field-independent basis, Debye):
    X=              1.8239    Y=             -0.9087    Z=              1.5349  Tot=              2.5511
 N-N= 1.732220258702D+02 E-N=-3.000804670064D+02  KE=-2.189416446485D+01
 1\1\GINC-GTX1080DELTA\FOpt\RPM6\ZDO\C4H10O2\MVEROT\17-Apr-2022\0\\#n P
 M6 Opt\\Optimisation de geometrie\\0,1\C,1.8866569994,1.1230728636,1.6
 256529171\C,1.3517242006,1.1690935483,3.0566869436\O,0.6173879329,-0.0
 208860851,3.3869620455\C,3.1934116818,0.3380109846,1.4830000004\C,4.41
 01525579,1.1146627503,1.9890073631\O,4.724592514,2.0417110887,0.926573
 66\H,2.0420712376,2.1557826036,1.2466961571\H,1.1116886584,0.681652959
 4,0.9652415091\H,0.5875161922,1.9597434366,3.1869644805\H,2.1508171326
 ,1.305277939,3.8063884849\H,1.1537248935,-0.8158308718,3.2087932511\H,
 3.3575808005,0.1054152544,0.4065861489\H,3.1272895882,-0.6362636997,2.

 Normal termination of Gaussian 09 at Sun Apr 17 23:37:10 2022.
