 Gaussian 09, Revision D.01,
 Gaussian 09:  AM64L-G09RevD.01 24-Apr-2013

 --------------------
 # hf/6-31G* opt freq
 --------------------

 -------------------------
 Optimisation de geometrie
 -------------------------
 Symbolic Z-matrix:
 Charge =  0 Multiplicity = 1

 SCF Done:  E(RHF) =  -156.106777234     A.U. after   10 cycles
 SCF Done:  E(RHF) =  -156.107824259     A.U. after    9 cycles
 SCF Done:  E(RHF) =  -156.107854948     A.U. after    8 cycles
 SCF Done:  E(RHF) =  -156.107855708     A.U. after    7 cycles
 Optimization completed.
    -- Stationary point found.
 Normal termination of Gaussian 09 at Sat Apr 16 11:53:47 2022.

 -----------------------------------------------------------------
 #N Geom=AllCheck Guess=TCheck SCRF=Check GenChk RHF/6-31G(d) Freq
 -----------------------------------------------------------------

 Structure from the checkpoint file:  "2-butene-Z-opt.chk"
 -------------------------
 Optimisation de geometrie
 -------------------------
 Charge =  0 Multiplicity = 1

                         Standard orientation:
 ---------------------------------------------------------------------
 Center     Atomic      Atomic             Coordinates (Angstroms)
 Number     Number       Type             X           Y           Z
 ---------------------------------------------------------------------
      1          6           0        0.661062    0.659720   -0.000004
      2          6           0       -0.661061    0.659720    0.000003
      3          6           0       -1.594132   -0.520186   -0.000000
      4          6           0        1.594132   -0.520186   -0.000000
      5          1           0        1.153596    1.619743    0.000003
      6          1           0       -1.153597    1.619742   -0.000001
      7          1           0       -1.075810   -1.470091    0.000162
      8          1           0       -2.241150   -0.493339    0.873268
      9          1           0       -2.240942   -0.493515   -0.873430
     10          1           0        2.240821   -0.493612    0.873523
     11          1           0        1.075810   -1.470090   -0.000339
     12          1           0        2.241272   -0.493243   -0.873175
 ---------------------------------------------------------------------

 SCF Done:  E(RHF) =  -156.107855708     A.U. after    1 cycles

 The electronic state is 1-A.
 Alpha  occ. eigenvalues --  -11.22012 -11.21837 -11.21461 -11.21460  -1.07472
 Alpha  occ. eigenvalues --   -0.97702  -0.89509  -0.71910  -0.65065  -0.57182
 Alpha  occ. eigenvalues --   -0.56713  -0.55306  -0.53544  -0.51195  -0.46759
 Alpha  occ. eigenvalues --   -0.34113
 Alpha virt. eigenvalues --    0.20122   0.24408   0.26855   0.28932   0.31865
 Alpha virt. eigenvalues --    0.32615   0.34574   0.34668   0.38377   0.39674
 Alpha virt. eigenvalues --    0.48683   0.65363   0.68785   0.71141   0.72655

 Mulliken charges:
               1
     1  C   -0.166450
     2  C   -0.166450
     3  C   -0.513580
     4  C   -0.513580
     5  H    0.170300
     6  H    0.170300
     7  H    0.170656
     8  H    0.169536
     9  H    0.169538
    10  H    0.169540
    11  H    0.170656
    12  H    0.169534
 Sum of Mulliken charges =  -0.00000

 Dipole moment (field-independent basis, Debye):
    X=             -0.0000    Y=             -0.1361    Z=              0.0000  Tot=              0.1361
 Quadrupole moment (field-independent basis, Debye-Ang):
   XX=            -25.2726   YY=            -26.0221   ZZ=            -28.1073
   XY=             -0.0000   XZ=              0.0000   YZ=              0.0000

  Exact polarizability:  58.116  -0.000  37.840   0.000  -0.000  28.431
 Approx polarizability:  45.314  -0.000  32.234   0.000  -0.000  26.342

                      1                      2                      3
                      A                      A                      A
 Frequencies --    134.8150               140.0985               311.4588
 Red. masses --      1.0609                 1.0339                 2.6510
 Frc consts  --      0.0114                 0.0120                 0.1515
 IR Inten    --      0.5207                 0.0000                 0.0004
 Raman Activ --      0.2563                 0.0105                 0.8239

                      4                      5                      6
                      A                      A                      A
 Frequencies --    430.3082               609.5181               770.5187
 Red. masses --      2.2922                 2.2499                 1.0970
 Frc consts  --      0.2501                 0.4925                 0.3837
 IR Inten    --      0.0000                 5.4801                35.8006
 Raman Activ --      9.1083                 0.8808                11.7953

                      7                      8                      9
                      A                      A                      A
 Frequencies --    924.7457              1046.1665              1116.9414
 Red. masses --      2.7068                 1.9779                 1.3605
 Frc consts  --      1.3638                 1.2754                 1.0000
 IR Inten    --      0.5440                 8.3186                 0.6804
 Raman Activ --     13.6545                 3.5039                 2.6046

                     10                     11                     12
                      A                      A                      A
 Frequencies --   1116.9894              1177.6502              1182.5311
 Red. masses --      1.1103                 1.4282                 1.6222
 Frc consts  --      0.8162                 1.1670                 1.3365
 IR Inten    --      0.0058                 5.5720                 0.0000
 Raman Activ --      1.5051                 0.5267                 2.7605

                     13                     14                     15
                      A                      A                      A
 Frequencies --   1265.0123              1406.3737              1530.0666
 Red. masses --      1.9647                 1.1393                 1.2175
 Frc consts  --      1.8524                 1.3276                 1.6793
 IR Inten    --      0.2667                 0.0024                 8.5329
 Raman Activ --      0.1795                25.2417                 3.5433

                     16                     17                     18
                      A                      A                      A
 Frequencies --   1573.5898              1587.2069              1628.2631
 Red. masses --      1.2220                 1.4305                 1.0455
 Frc consts  --      1.7828                 2.1233                 1.6331
 IR Inten    --      1.8152                 2.1475                 0.0000
 Raman Activ --     15.7884                 5.9911                 1.0104

                     19                     20                     21
                      A                      A                      A
 Frequencies --   1632.8640              1635.2264              1642.7715
 Red. masses --      1.0440                 1.0570                 1.0698
 Frc consts  --      1.6401                 1.6652                 1.7011
 IR Inten    --      8.8721                 2.5234                 4.8388
 Raman Activ --     28.8900                 0.8050                53.8102

                     22                     23                     24
                      A                      A                      A
 Frequencies --   1906.5825              3194.4362              3197.7555
 Red. masses --      5.9192                 1.0403                 1.0427
 Frc consts  --     12.6771                 6.2547                 6.2820
 IR Inten    --      2.4869                66.6215                12.4333
 Raman Activ --     30.4403                 2.1673               309.8844

                     25                     26                     27
                      A                      A                      A
 Frequencies --   3237.1401              3238.0798              3283.5822
 Red. masses --      1.1013                 1.1013                 1.0978
 Frc consts  --      6.7995                 6.8036                 6.9739
 IR Inten    --      0.0001                81.0304                11.9198
 Raman Activ --    221.9332                 1.2169                39.9062

                     28                     29                     30
                      A                      A                      A
 Frequencies --   3304.7659              3309.3309              3336.4115
 Red. masses --      1.0945                 1.0862                 1.0962
 Frc consts  --      7.0429                 7.0088                 7.1896
 IR Inten    --     21.5763                22.8473                71.7959
 Raman Activ --    111.1928                35.8193               103.8140

 - Thermochemistry -
 -------------------
 Temperature   298.150 Kelvin.  Pressure   1.00000 Atm.
 Atom     1 has atomic number  6 and mass  12.00000

 Molecular mass:    56.06260 amu.
 Principal axes and moments of inertia in atomic units:
                           1         2         3
     Eigenvalues --   109.24318 356.44459 443.72695
           X            1.00000  -0.00000   0.00000
           Y            0.00000   1.00000   0.00000
           Z           -0.00000  -0.00000   1.00000
 This molecule is an asymmetric top.
 Rotational symmetry number  1.
 Rotational temperatures (Kelvin)      0.79285     0.24299     0.19520
 Rotational constants (GHZ):          16.52040     5.06317     4.06723
 Zero-point vibrational energy     304277.3 (Joules/Mol)
                                   72.72403 (Kcal/Mol)
 Warning -- explicit consideration of   5 degrees of freedom as
           vibrations may cause significant error
 Vibrational temperatures:    193.97   201.57   448.12   619.12   876.96
          (Kelvin)           1108.60  1330.50  1505.20  1607.03  1607.10
                             1694.37  1701.40  1820.07  2023.46  2201.42
                             2264.04  2283.63  2342.70  2349.32  2352.72
                             2363.58  2743.14  4596.08  4600.85  4657.52
                             4658.87  4724.34  4754.82  4761.38  4800.35

 Zero-point correction=                           0.115893 (Hartree/Particle)
 Thermal correction to Energy=                    0.121192
 Thermal correction to Enthalpy=                  0.122136
 Thermal correction to Gibbs Free Energy=         0.088199
 Sum of electronic and zero-point Energies=           -155.991963
 Sum of electronic and thermal Energies=              -155.986664
 Sum of electronic and thermal Enthalpies=            -155.985719
 Sum of electronic and thermal Free Energies=         -156.019656

                     E (Thermal)             CV                S
                      KCal/Mol        Cal/Mol-Kelvin    Cal/Mol-Kelvin
 Total                   76.049             16.979             71.427
 Electronic               0.000              0.000              0.000
 Translational            0.889              2.981             37.993
 Rotational               0.889              2.981             24.361
 Vibrational             74.272             11.018              9.072
 Vibration     1          0.613              1.919              2.876
 Vibration     2          0.615              1.913              2.803
 Vibration     3          0.700              1.652              1.355
 Vibration     4          0.792              1.404              0.858
 Vibration     5          0.968              1.012              0.434

 Optimization completed.
    -- Stationary point found.
 Normal termination of Gaussian 09 at Sat Apr 16 11:53:55 2022.
