 Gaussian 09, Revision D.01,
 Gaussian 09:  AM64L-G09RevD.01 24-Apr-2013

 ----------
 #n AM1 Opt
 ----------

 ---------------------
 Geometry optimization
 ---------------------
 Symbolic Z-matrix:
 Charge =  0 Multiplicity = 1

 SCF Done:  E(RAM1) =  0.273231311187     A.U. after   15 cycles
 SCF Done:  E(RAM1) =  0.189396829443     A.U. after   14 cycles
 SCF Done:  E(RAM1) =  0.167582419716     A.U. after   15 cycles
 SCF Done:  E(RAM1) =  0.159539123096     A.U. after   14 cycles
 SCF Done:  E(RAM1) =  0.155454333534     A.U. after   14 cycles
 SCF Done:  E(RAM1) =  0.152172835980     A.U. after   14 cycles
 SCF Done:  E(RAM1) =  0.148832142718     A.U. after   15 cycles
 SCF Done:  E(RAM1) =  0.147074252969     A.U. after   14 cycles
 SCF Done:  E(RAM1) =  0.145896259735     A.U. after   15 cycles
 SCF Done:  E(RAM1) =  0.144802596654     A.U. after   14 cycles
 SCF Done:  E(RAM1) =  0.138245729781     A.U. after   14 cycles
 SCF Done:  E(RAM1) =  0.137897580311     A.U. after   13 cycles
 SCF Done:  E(RAM1) =  0.137635828530     A.U. after   14 cycles
 SCF Done:  E(RAM1) =  0.137407539097     A.U. after   14 cycles
 SCF Done:  E(RAM1) =  0.137040800226     A.U. after   14 cycles
 SCF Done:  E(RAM1) =  0.136990519995     A.U. after   14 cycles
 SCF Done:  E(RAM1) =  0.136963454335     A.U. after   14 cycles
 SCF Done:  E(RAM1) =  0.136960718959     A.U. after   12 cycles
 SCF Done:  E(RAM1) =  0.136960392579     A.U. after   10 cycles
 SCF Done:  E(RAM1) =  0.136960376725     A.U. after   10 cycles
 Optimization completed.
    -- Stationary point found.

                         Standard orientation:
 ---------------------------------------------------------------------
 Center     Atomic      Atomic             Coordinates (Angstroms)
 Number     Number       Type             X           Y           Z
 ---------------------------------------------------------------------
      1          7           0       -0.479947    0.493923    0.690097
      2          6           0       -0.030542    1.800712    0.303160
      3          6           0        0.897468    1.988328   -0.741195
      4          6           0        1.212024    3.275139   -1.169591
      5          6           0        0.618589    4.388899   -0.577929
      6          6           0       -0.297435    4.211343    0.457512
      7          6           0       -0.618589    2.934360    0.906533
      8          7           0        0.479947   -0.493923    0.690097
      9          6           0        0.030542   -1.800712    0.303160
     10          6           0       -0.897468   -1.988328   -0.741195
     11          6           0        0.618589   -2.934360    0.906533
     12          6           0       -1.212024   -3.275139   -1.169591
     13          6           0        0.297435   -4.211343    0.457512
     14          6           0       -0.618589   -4.388899   -0.577929
     15          1           0       -0.961611    0.554608    1.581240
     16          1           0        1.374302    1.123351   -1.227552
     17          1           0        1.936750    3.409235   -1.986871
     18          1           0        0.871238    5.400736   -0.924867
     19          1           0       -0.769760    5.085810    0.929603
     20          1           0       -1.343368    2.819776    1.726826
     21          1           0        0.961611   -0.554608    1.581240
     22          1           0       -1.374302   -1.123351   -1.227552
     23          1           0        1.343368   -2.819776    1.726826
     24          1           0       -1.936750   -3.409235   -1.986871
     25          1           0        0.769760   -5.085810    0.929603
     26          1           0       -0.871238   -5.400736   -0.924867
 ---------------------------------------------------------------------

 The electronic state is 1-A.
 Alpha  occ. eigenvalues --   -1.47366  -1.44007  -1.36802  -1.21340  -1.15617
 Alpha  occ. eigenvalues --   -1.15356  -1.10433  -1.00656  -0.86241  -0.85255
 Alpha  occ. eigenvalues --   -0.83800  -0.80462  -0.67520  -0.66474  -0.66386
 Alpha  occ. eigenvalues --   -0.61667  -0.61287  -0.56600  -0.55071  -0.54559
 Alpha  occ. eigenvalues --   -0.54455  -0.51993  -0.51940  -0.50370  -0.49603
 Alpha  occ. eigenvalues --   -0.45692  -0.45656  -0.43924  -0.43385  -0.41643
 Alpha  occ. eigenvalues --   -0.41172  -0.35648  -0.35641  -0.32703  -0.32351
 Alpha virt. eigenvalues --    0.01181   0.01922   0.02084   0.02245   0.07346
 Alpha virt. eigenvalues --    0.10726   0.10826   0.12160   0.14385   0.14635
 Alpha virt. eigenvalues --    0.14689   0.14699   0.15371   0.15382   0.16246

 Mulliken charges:
               1
     1  N   -0.176752
     2  C    0.024149
     3  C   -0.128801
     4  C   -0.115333
     5  C   -0.150520
     6  C   -0.110119
     7  C   -0.174009
     8  N   -0.176752
     9  C    0.024149
    10  C   -0.128801
    11  C   -0.174009
    12  C   -0.115333
    13  C   -0.110119
    14  C   -0.150520
    15  H    0.153628
    16  H    0.153552
    17  H    0.132379
    18  H    0.131906
    19  H    0.130781
    20  H    0.129139
    21  H    0.153628
    22  H    0.153552
    23  H    0.129139
    24  H    0.132379
    25  H    0.130781
    26  H    0.131906
 Sum of Mulliken charges =  -0.00000

 Dipole moment (field-independent basis, Debye):
    X=             -0.0000    Y=             -0.0000    Z=              1.6955  Tot=              1.6955
 N-N= 4.328762305375D+02 E-N=-7.687044786470D+02  KE=-4.731251485366D+01
 Symmetry A    KE=-2.452592650514D+01
 Symmetry B    KE=-2.278658834852D+01
 1\1\GINC-GTX1080DELTA\FOpt\RAM1\ZDO\C12H12N2\MVEROT\12-Apr-2022\0\\#n
 AM1 Opt\\Geometry optimization\\0,1\N,-0.1630575575,3.7435227448,3.244
 1197115\C,0.8871310903,4.1304595777,4.1423214359\C,1.7820495552,5.1748
 148359,3.8332520734\C,2.7058923512,5.6032111767,4.7826421441\C,2.75945
 85072,5.0115486784,6.0434976123\C,1.8799728754,3.976107564,6.355156450
 9\C,0.9554287765,3.5270862525,5.417583058\N,0.1630575575,3.7435227448,
 1.9058802885\C,-0.8871310903,4.1304595777,1.0076785641\C,-1.7820495552

 Normal termination of Gaussian 09 at Tue Apr 12 01:27:48 2022.
