 Gaussian 09, Revision D.01,
 Gaussian 09:  AM64L-G09RevD.01 24-Apr-2013

 ----------
 #n AM1 Opt
 ----------

 -------------------------------------------------------
 Optimisation of pbenzoquinone using the AM1 hamiltonian
 -------------------------------------------------------
 Symbolic Z-matrix:
 Charge =  0 Multiplicity = 1

 SCF Done:  E(RAM1) = -0.401910247774E-01 A.U. after   12 cycles

 The electronic state is 1-AG.
 Alpha  occ. eigenvalues --   -1.50484  -1.45239  -1.33299  -1.21161  -1.03233
 Alpha  occ. eigenvalues --   -0.88271  -0.85059  -0.67494  -0.65986  -0.65946
 Alpha  occ. eigenvalues --   -0.58859  -0.56431  -0.56326  -0.55102  -0.53250
 Alpha  occ. eigenvalues --   -0.52998  -0.42943  -0.41945  -0.41433  -0.39962
 Alpha virt. eigenvalues --   -0.06371   0.00492   0.03182   0.07782   0.08637
 Alpha virt. eigenvalues --    0.09187   0.10471   0.12992   0.13262   0.15173
 Alpha virt. eigenvalues --    0.15402   0.16210   0.16497   0.16973   0.21194

 Mulliken charges:
               1
     1  O   -0.251007
     2  O   -0.251007
     3  C    0.260317
     4  C    0.260317
     5  C   -0.165002
     6  C   -0.165002
     7  C   -0.165002
     8  C   -0.165002
     9  H    0.160347
    10  H    0.160347
    11  H    0.160347
    12  H    0.160347
 Sum of Mulliken charges =  -0.00000

 Dipole moment (field-independent basis, Debye):
    X=              0.0000    Y=             -0.0000    Z=              0.0000  Tot=              0.0000
 N-N= 1.960249026273D+02 E-N=-3.355836797675D+02  KE=-2.603811793466D+01
 Symmetry AG   KE=-8.297478419563D+00
 Symmetry B1G  KE=-7.384435468036D-01
 Symmetry B2G  KE=-9.502388206869D-01
 Symmetry B3G  KE=-3.144288378567D+00
 Symmetry AU   KE=-6.489717702154D-18
 Symmetry B1U  KE=-6.314198634610D+00
 Symmetry B2U  KE=-4.834680659602D+00
 Symmetry B3U  KE=-1.758789474831D+00
 Calling FoFJK, ICntrl=      2127 FMM=F ISym2X=1 I1Cent= 0 IOpClX= 0 NMat=1 NMatS=1 NMatT=0.

 Optimization completed.
    -- Stationary point found.

                         Standard orientation:
 ---------------------------------------------------------------------
 Center     Atomic      Atomic             Coordinates (Angstroms)
 Number     Number       Type             X           Y           Z
 ---------------------------------------------------------------------
      1          8           0        0.000000   -0.000000    2.688495
      2          8           0        0.000000   -0.000000   -2.688495
      3          6           0        0.000000   -0.000000    1.452908
      4          6           0        0.000000   -0.000000   -1.452908
      5          6           0        0.000000    1.254776    0.669060
      6          6           0       -0.000000   -1.254776    0.669060
      7          6           0        0.000000    1.254776   -0.669060
      8          6           0       -0.000000   -1.254776   -0.669060
      9          1           0        0.000000    2.187230    1.257835
     10          1           0       -0.000000   -2.187230    1.257835
     11          1           0        0.000000    2.187230   -1.257835
     12          1           0       -0.000000   -2.187230   -1.257835
 ---------------------------------------------------------------------

 Normal termination of Gaussian 09 at Mon Apr 11 18:22:11 2022.
