 Gaussian 09, Revision D.01,
 Gaussian 09:  AM64L-G09RevD.01 24-Apr-2013

 ----------
 #n AM1 Opt
 ----------

 ---------------------
 Geometry optimization
 ---------------------
 Symbolic Z-matrix:
 Charge =  0 Multiplicity = 1

 SCF Done:  E(RAM1) = -0.146245943152     A.U. after   16 cycles
 SCF Done:  E(RAM1) = -0.150135585100     A.U. after   14 cycles
 SCF Done:  E(RAM1) = -0.150877451335     A.U. after   12 cycles
 SCF Done:  E(RAM1) = -0.150928526788     A.U. after   11 cycles
 SCF Done:  E(RAM1) = -0.150934360839     A.U. after   11 cycles
 Optimization completed.
    -- Stationary point found.

                         Standard orientation:
 ---------------------------------------------------------------------
 Center     Atomic      Atomic             Coordinates (Angstroms)
 Number     Number       Type             X           Y           Z
 ---------------------------------------------------------------------
      1          6           0        0.209583    1.462551    0.000049
      2          6           0        1.349771    0.515734    0.000025
      3          6           0       -1.145737    0.881629    0.000025
      4          8           0        0.391358    2.688412   -0.000036
      5          6           0       -0.211550   -1.454822    0.000044
      6          6           0       -1.349969   -0.507087    0.000025
      7          8           0       -0.396159   -2.680977   -0.000031
      8          6           0        1.143850   -0.875685    0.000024
      9          6           0        2.644506    1.033159    0.000008
     10          6           0       -2.647884   -1.022693    0.000007
     11          6           0        2.246385   -1.738944    0.000003
     12          6           0       -2.251611    1.744858    0.000005
     13          6           0        3.740161    0.150368   -0.000009
     14          6           0        3.544694   -1.237200   -0.000012
     15          6           0       -3.548774    1.246625   -0.000011
     16          6           0       -3.742247   -0.144905   -0.000010
     17          1           0        2.812019    2.122647    0.000010
     18          1           0       -2.798429   -2.114313    0.000007
     19          1           0        2.072380   -2.828709    0.000001
     20          1           0       -2.076900    2.834761    0.000005
     21          1           0        4.405016   -1.921719   -0.000027
     22          1           0       -4.419122    1.918600   -0.000026
     23          8           0        4.985157    0.728160   -0.000025
     24          1           0        5.646971    0.020196   -0.000031
     25          8           0       -5.042261   -0.585376   -0.000028
     26          1           0       -5.033763   -1.554741   -0.000018
 ---------------------------------------------------------------------

 The electronic state is 1-A.
 Alpha  occ. eigenvalues --   -1.54122  -1.49345  -1.45723  -1.45076  -1.38744
 Alpha  occ. eigenvalues --   -1.36860  -1.22944  -1.17940  -1.17159  -1.12182
 Alpha  occ. eigenvalues --   -0.99089  -0.94435  -0.89330  -0.85906  -0.81326
 Alpha  occ. eigenvalues --   -0.77261  -0.72338  -0.70418  -0.67670  -0.64695
 Alpha  occ. eigenvalues --   -0.63152  -0.61798  -0.59908  -0.59788  -0.58474
 Alpha  occ. eigenvalues --   -0.57220  -0.56178  -0.55763  -0.55259  -0.54421
 Alpha  occ. eigenvalues --   -0.54400  -0.53877  -0.52160  -0.50465  -0.48115
 Alpha  occ. eigenvalues --   -0.47176  -0.46326  -0.46218  -0.41625  -0.40025
 Alpha  occ. eigenvalues --   -0.38209  -0.38064  -0.35621  -0.35325
 Alpha virt. eigenvalues --   -0.05289  -0.01710  -0.00879  -0.00244   0.04516
 Alpha virt. eigenvalues --    0.05076   0.08096   0.08466   0.08913   0.09613
 Alpha virt. eigenvalues --    0.10206   0.10442   0.12102   0.12216   0.12437

 Mulliken charges:
               1
     1  C    0.307852
     2  C   -0.068819
     3  C   -0.147824
     4  O   -0.283770
     5  C    0.309366
     6  C   -0.062519
     7  O   -0.291894
     8  C   -0.151209
     9  C   -0.116308
    10  C   -0.176985
    11  C   -0.043197
    12  C   -0.052241
    13  C    0.098706
    14  C   -0.209040
    15  C   -0.149332
    16  C    0.097929
    17  H    0.178829
    18  H    0.162367
    19  H    0.162053
    20  H    0.164146
    21  H    0.143646
    22  H    0.160430
    23  O   -0.240098
    24  H    0.224458
    25  O   -0.243233
    26  H    0.226687
 Sum of Mulliken charges =  -0.00000

 Dipole moment (field-independent basis, Debye):
    X=              0.9331    Y=             -2.0905    Z=              0.0002  Tot=              2.2893
 N-N= 6.580887167376D+02 E-N=-1.187366677046D+03  KE=-6.207007777271D+01
 1\1\GINC-GTX1080DELTA\FOpt\RAM1\ZDO\C14H8O4\MVEROT\11-Apr-2022\0\\#n A
 M1 Opt\\Geometry optimization\\0,1\C,0.0056438813,1.4683333222,0.00037
 04801\C,1.267726694,0.691391807,0.0002026458\C,-1.254438207,0.70246485
 29,0.0001566834\O,0.013100578,2.707575866,0.0005527272\C,-0.0007495842
 ,-1.479272531,-0.0002708379\C,-1.2612105232,-0.7011728197,-0.000146519
 6\O,-0.0109707169,-2.7192042621,-0.0006143913\C,1.2596632842,-0.715159
 3867,-0.0001028394\C,2.4767628431,1.3858692651,0.0003584908\C,-2.47365
 0868,-1.3942966142,-0.0003366345\C,2.4727085991,-1.4146729451,-0.00025
 09796\C,-2.4707855349,1.4014791685,0.0002651227\C,3.6857460325,0.66604

 Normal termination of Gaussian 09 at Mon Apr 11 23:41:22 2022.
