 Gaussian 09, Revision D.01,
 Gaussian 09:  AM64L-G09RevD.01 24-Apr-2013

 ---------------
 #n AM1 Opt freq
 ---------------

 -------------------------
 Optimisation de geometrie
 -------------------------
 Symbolic Z-matrix:
 Charge =  0 Multiplicity = 1

 SCF Done:  E(RAM1) = -0.140216697339E-02 A.U. after   11 cycles
 SCF Done:  E(RAM1) = -0.499665952903E-02 A.U. after   10 cycles
 SCF Done:  E(RAM1) = -0.540458187973E-02 A.U. after    9 cycles
 SCF Done:  E(RAM1) = -0.545143640517E-02 A.U. after    8 cycles
 SCF Done:  E(RAM1) = -0.545188425630E-02 A.U. after    8 cycles
 Optimization completed.
    -- Stationary point found.
 Normal termination of Gaussian 09 at Sat Apr 16 11:42:50 2022.

 -------------------------------------------------------------
 #N Geom=AllCheck Guess=TCheck SCRF=Check GenChk RAM1/ZDO Freq
 -------------------------------------------------------------

 Structure from the checkpoint file:  "2-butene-E-opt.chk"
 -------------------------
 Optimisation de geometrie
 -------------------------
 Charge =  0 Multiplicity = 1

                         Standard orientation:
 ---------------------------------------------------------------------
 Center     Atomic      Atomic             Coordinates (Angstroms)
 Number     Number       Type             X           Y           Z
 ---------------------------------------------------------------------
      1          6           0       -0.534690   -0.400726   -0.000026
      2          6           0        0.534690    0.400727   -0.000075
      3          6           0        1.927983   -0.084865    0.000015
      4          6           0       -1.927984    0.084865    0.000032
      5          1           0       -0.421415   -1.497974   -0.000089
      6          1           0        0.421414    1.497975   -0.000055
      7          1           0        1.981436   -1.201150   -0.003944
      8          1           0        2.467518    0.296217   -0.903446
      9          1           0        2.464956    0.289634    0.907770
     10          1           0       -2.465952   -0.292047   -0.906123
     11          1           0       -2.466524   -0.293813    0.905106
     12          1           0       -1.981435    1.201157    0.001098
 ---------------------------------------------------------------------

 SCF Done:  E(RAM1) = -0.545188425657E-02 A.U. after    2 cycles

 The electronic state is 1-A.
 Alpha  occ. eigenvalues --   -1.32227  -1.13447  -0.91754  -0.73758  -0.56459
 Alpha  occ. eigenvalues --   -0.55231  -0.52710  -0.49821  -0.46408  -0.45600
 Alpha  occ. eigenvalues --   -0.43463  -0.35033
 Alpha virt. eigenvalues --    0.04741   0.14355   0.16096   0.16164   0.16579
 Alpha virt. eigenvalues --    0.16744   0.17231   0.18031   0.18422   0.18922
 Alpha virt. eigenvalues --    0.21149   0.22150

 Mulliken charges:
               1
     1  C   -0.169652
     2  C   -0.169652
     3  C   -0.185220
     4  C   -0.185220
     5  H    0.117837
     6  H    0.117837
     7  H    0.075932
     8  H    0.080533
     9  H    0.080569
    10  H    0.080556
    11  H    0.080546
    12  H    0.075932
 Sum of Mulliken charges =  -0.00000

 Dipole moment (field-independent basis, Debye):
    X=             -0.0000    Y=             -0.0000    Z=              0.0004  Tot=              0.0004
 N-N= 7.885835626463D+01 E-N=-1.270185449866D+02  KE=-1.479085720232D+01
  Exact polarizability:  51.241   9.715  35.827   0.008   0.002  20.920
 Approx polarizability:  31.463   8.094  24.330   0.005   0.002  13.082
 Calling FoFJK, ICntrl=    100127 FMM=F ISym2X=0 I1Cent= 0 IOpClX= 0 NMat=1 NMatS=1 NMatT=0.
 Full mass-weighted force constant matrix:
 Low frequencies ---  -11.9629   -0.0019   -0.0003    0.0009    0.9155    4.3397
 Low frequencies ---   88.4095  114.6267  233.4757
 Diagonal vibrational polarizability:
        0.1349035       0.3450043       4.4266335
 Harmonic frequencies (cm**-1), IR intensities (KM/Mole), Raman scattering

                      1                      2                      3
                      A                      A                      A
 Frequencies --     88.4095               114.6103               233.4757
 Red. masses --      1.0116                 1.2268                 2.3458
 Frc consts  --      0.0047                 0.0095                 0.0753
 IR Inten    --      0.4927                 0.0000                 2.7414

                      4                      5                      6
                      A                      A                      A
 Frequencies --    300.5912               543.6574               806.9509
 Red. masses --      2.4546                 2.8884                 1.2998
 Frc consts  --      0.1307                 0.5030                 0.4987
 IR Inten    --      0.4985                 0.0000                 0.0000

                      7                      8                      9
                      A                      A                      A
 Frequencies --    949.0588               991.6497              1033.6771
 Red. masses --      1.0609                 1.4087                 1.1789
 Frc consts  --      0.5630                 0.8162                 0.7422
 IR Inten    --     40.2380                 0.0000                 6.9170

                     10                     11                     12
                      A                      A                      A
 Frequencies --   1072.7717              1087.7342              1237.4494
 Red. masses --      1.4245                 1.6479                 1.5830
 Frc consts  --      0.9659                 1.1488                 1.4282
 IR Inten    --      4.8273                 0.0000                 0.0000

                     13                     14                     15
                      A                      A                      A
 Frequencies --   1285.1115              1325.5111              1350.2975
 Red. masses --      1.2274                 1.4759                 1.6622
 Frc consts  --      1.1943                 1.5278                 1.7857
 IR Inten    --      0.0083                 0.0000                 0.0522

                     16                     17                     18
                      A                      A                      A
 Frequencies --   1382.1438              1384.0594              1385.8221
 Red. masses --      1.0874                 1.1247                 1.0681
 Frc consts  --      1.2239                 1.2694                 1.2086
 IR Inten    --      0.0000                 3.8902                 0.0001

                     19                     20                     21
                      A                      A                      A
 Frequencies --   1385.9019              1442.1969              1461.9562
 Red. masses --      1.0681                 1.3814                 2.1091
 Frc consts  --      1.2087                 1.6929                 2.6559
 IR Inten    --      4.0458                 0.0000                 1.0948

                     22                     23                     24
                      A                      A                      A
 Frequencies --   1895.5886              3043.2271              3043.2848
 Red. masses --      9.5013                 1.0892                 1.0891
 Frc consts  --     20.1151                 5.9431                 5.9430
 IR Inten    --      0.0000                 1.7249                 0.0001

                     25                     26                     27
                      A                      A                      A
 Frequencies --   3053.8697              3053.8957              3143.1771
 Red. masses --      1.0895                 1.0896                 1.0380
 Frc consts  --      5.9866                 5.9874                 6.0419
 IR Inten    --      0.0001                 0.6103                 0.0000

                     28                     29                     30
                      A                      A                      A
 Frequencies --   3144.8582              3155.4775              3173.2396
 Red. masses --      1.0291                 1.0660                 1.0797
 Frc consts  --      5.9964                 6.2535                 6.4058
 IR Inten    --      3.9503                 0.0000                28.1754

 - Thermochemistry -
 -------------------
 Temperature   298.150 Kelvin.  Pressure   1.00000 Atm.
 Atom     1 has atomic number  6 and mass  12.00000

 Molecular mass:    56.06260 amu.
 Principal axes and moments of inertia in atomic units:
                           1         2         3
     Eigenvalues --    53.94792 471.99813 502.33257
           X            0.99999  -0.00515   0.00000
           Y            0.00515   0.99999   0.00001
           Z           -0.00000  -0.00001   1.00000
 This molecule is an asymmetric top.
 Rotational symmetry number  1.
 Rotational temperatures (Kelvin)      1.60551     0.18350     0.17242
 Rotational constants (GHZ):          33.45340     3.82362     3.59272
 Zero-point vibrational energy     284529.7 (Joules/Mol)
                                   68.00423 (Kcal/Mol)
 Warning -- explicit consideration of   5 degrees of freedom as
           vibrations may cause significant error
 Vibrational temperatures:    127.20   164.90   335.92   432.48   782.20
          (Kelvin)           1161.02  1365.48  1426.76  1487.23  1543.48
                             1565.00  1780.41  1848.99  1907.11  1942.77
                             1988.59  1991.35  1993.89  1994.00  2075.00
                             2103.43  2727.33  4378.52  4378.60  4393.83
                             4393.87  4522.33  4524.74  4540.02  4565.58

 Zero-point correction=                           0.108372 (Hartree/Particle)
 Thermal correction to Energy=                    0.114127
 Thermal correction to Enthalpy=                  0.115071
 Thermal correction to Gibbs Free Energy=         0.080096
 Sum of electronic and zero-point Energies=              0.102920
 Sum of electronic and thermal Energies=                 0.108675
 Sum of electronic and thermal Enthalpies=               0.109620
 Sum of electronic and thermal Free Energies=            0.074644

                     E (Thermal)             CV                S
                      KCal/Mol        Cal/Mol-Kelvin    Cal/Mol-Kelvin
 Total                   71.616             18.111             73.612
 Electronic               0.000              0.000              0.000
 Translational            0.889              2.981             37.993
 Rotational               0.889              2.981             24.062
 Vibrational             69.838             12.150             11.556
 Vibration     1          0.601              1.957              3.695
 Vibration     2          0.608              1.937              3.189
 Vibration     3          0.654              1.790              1.852
 Vibration     4          0.693              1.673              1.414
 Vibration     5          0.899              1.154              0.557

 Normal termination of Gaussian 09 at Sat Apr 16 11:42:52 2022.
