 Gaussian 09, Revision D.01,
 Gaussian 09:  AM64L-G09RevD.01 24-Apr-2013

 ----------
 #n AM1 Opt
 ----------

 -------------------------
 Optimisation de geometrie
 -------------------------
 Symbolic Z-matrix:
 Charge =  0 Multiplicity = 1

 SCF Done:  E(RAM1) = -0.172328891002     A.U. after   13 cycles
 SCF Done:  E(RAM1) = -0.175617460420     A.U. after   11 cycles
 SCF Done:  E(RAM1) = -0.175794158554     A.U. after   10 cycles
 SCF Done:  E(RAM1) = -0.175823016327     A.U. after    9 cycles
 SCF Done:  E(RAM1) = -0.175834733663     A.U. after    9 cycles
 SCF Done:  E(RAM1) = -0.175845514960     A.U. after   10 cycles
 SCF Done:  E(RAM1) = -0.175846412257     A.U. after    9 cycles
 Optimization completed.
    -- Stationary point found.

                         Standard orientation:
 ---------------------------------------------------------------------
 Center     Atomic      Atomic             Coordinates (Angstroms)
 Number     Number       Type             X           Y           Z
 ---------------------------------------------------------------------
      1          6           0       -0.564200   -0.509019    0.073410
      2          8           0       -1.826577    0.097945   -0.108034
      3          6           0        0.564186    0.509216   -0.071853
      4          8           0        1.826732   -0.098291    0.106535
      5          1           0       -0.503932   -1.287594   -0.733814
      6          1           0       -0.504404   -1.011966    1.074669
      7          1           0       -1.933407    0.750218    0.594796
      8          1           0        0.505388    1.286423    0.736787
      9          1           0        0.502841    1.013848   -1.072184
     10          1           0        1.932353   -0.749352   -0.597604
 ---------------------------------------------------------------------

 The electronic state is 1-A.
 Alpha  occ. eigenvalues --   -1.43941  -1.37403  -1.08878  -0.87754  -0.68026
 Alpha  occ. eigenvalues --   -0.67744  -0.61187  -0.56459  -0.53234  -0.52154
 Alpha  occ. eigenvalues --   -0.44788  -0.43787  -0.39969
 Alpha virt. eigenvalues --    0.11837   0.12621   0.13789   0.14038   0.14387
 Alpha virt. eigenvalues --    0.15866   0.16894   0.21862   0.22547

 Mulliken charges:
               1
     1  C   -0.062087
     2  O   -0.318032
     3  C   -0.062097
     4  O   -0.318020
     5  H    0.104029
     6  H    0.077698
     7  H    0.198384
     8  H    0.104024
     9  H    0.077708
    10  H    0.198393
 Sum of Mulliken charges =  -0.00000

 Dipole moment (field-independent basis, Debye):
    X=             -0.0017    Y=              0.0022    Z=              0.0013  Tot=              0.0031
 N-N= 1.020191479519D+02 E-N=-1.683065814621D+02  KE=-1.677689970434D+01
 1\1\GINC-GTX1080DELTA\FOpt\RAM1\ZDO\C2H6O2\MVEROT\17-Apr-2022\0\\#n AM
 1 Opt\\Optimisation de geometrie\\0,1\C,2.2684024017,2.305651349,2.120
 4841909\O,1.220450265,2.7652931486,2.9484033287\C,1.8537452547,1.05622
 32691,1.3470848741\O,2.9027048593,0.5947550474,0.5214710293\H,3.109741
 9823,2.0748295031,2.8277973502\H,2.5958340147,3.1094691842,1.409346799
 7\H,0.4879510266,3.0123485924,2.3711242091\H,1.0140395314,1.2875477157
 ,0.6380071843\H,1.5240156047,0.2533125227,2.0582049908\H,3.6338050594,
 0.3471596678,1.1002960429\\Version=AM64L-G09RevD.01\State=1-A\HF=-0.17
 58464\RMSD=2.801e-09\RMSF=5.340e-05\Dipole=-0.0011332,0.0004081,-0.000

 Normal termination of Gaussian 09 at Sun Apr 17 23:35:01 2022.
