 Gaussian 09, Revision D.01,
 Gaussian 09:  AM64L-G09RevD.01 24-Apr-2013

 -----------------
 #n AM1 freq=RAMAN
 -----------------

 ----------
 UV-spectra
 ----------
 Symbolic Z-matrix:
 Charge =  0 Multiplicity = 1

                         Standard orientation:
 ---------------------------------------------------------------------
 Center     Atomic      Atomic             Coordinates (Angstroms)
 Number     Number       Type             X           Y           Z
 ---------------------------------------------------------------------
      1          7           0        0.479947    0.493923   -0.690097
      2          6           0        0.030542    1.800712   -0.303160
      3          6           0       -0.897468    1.988328    0.741195
      4          6           0       -1.212024    3.275139    1.169591
      5          6           0       -0.618589    4.388899    0.577929
      6          6           0        0.297435    4.211343   -0.457512
      7          6           0        0.618589    2.934360   -0.906533
      8          7           0       -0.479947   -0.493923   -0.690097
      9          6           0       -0.030542   -1.800712   -0.303160
     10          6           0        0.897468   -1.988328    0.741195
     11          6           0       -0.618589   -2.934360   -0.906533
     12          6           0        1.212024   -3.275139    1.169591
     13          6           0       -0.297435   -4.211343   -0.457512
     14          6           0        0.618589   -4.388899    0.577929
     15          1           0        0.961611    0.554608   -1.581240
     16          1           0       -1.374302    1.123351    1.227552
     17          1           0       -1.936750    3.409235    1.986871
     18          1           0       -0.871238    5.400736    0.924867
     19          1           0        0.769760    5.085810   -0.929603
     20          1           0        1.343368    2.819776   -1.726826
     21          1           0       -0.961611   -0.554608   -1.581240
     22          1           0        1.374302   -1.123351    1.227552
     23          1           0       -1.343368   -2.819776   -1.726826
     24          1           0        1.936750   -3.409235    1.986871
     25          1           0       -0.769760   -5.085810   -0.929603
     26          1           0        0.871238   -5.400736    0.924867
 ---------------------------------------------------------------------

 SCF Done:  E(RAM1) =  0.136960376721     A.U. after   15 cycles

 The electronic state is 1-A.
 Alpha  occ. eigenvalues --   -1.47366  -1.44007  -1.36802  -1.21340  -1.15617
 Alpha  occ. eigenvalues --   -1.15356  -1.10433  -1.00656  -0.86241  -0.85255
 Alpha  occ. eigenvalues --   -0.83800  -0.80462  -0.67520  -0.66474  -0.66386
 Alpha  occ. eigenvalues --   -0.61667  -0.61287  -0.56600  -0.55071  -0.54559
 Alpha  occ. eigenvalues --   -0.54455  -0.51993  -0.51940  -0.50370  -0.49603
 Alpha  occ. eigenvalues --   -0.45692  -0.45656  -0.43924  -0.43385  -0.41643
 Alpha  occ. eigenvalues --   -0.41172  -0.35648  -0.35641  -0.32703  -0.32351
 Alpha virt. eigenvalues --    0.01181   0.01922   0.02084   0.02245   0.07346
 Alpha virt. eigenvalues --    0.10726   0.10826   0.12160   0.14385   0.14635
 Alpha virt. eigenvalues --    0.14689   0.14699   0.15371   0.15382   0.16246

 Mulliken charges:
               1
     1  N   -0.176752
     2  C    0.024149
     3  C   -0.128801
     4  C   -0.115333
     5  C   -0.150520
     6  C   -0.110119
     7  C   -0.174009
     8  N   -0.176752
     9  C    0.024149
    10  C   -0.128801
    11  C   -0.174009
    12  C   -0.115333
    13  C   -0.110119
    14  C   -0.150520
    15  H    0.153628
    16  H    0.153552
    17  H    0.132379
    18  H    0.131906
    19  H    0.130781
    20  H    0.129139
    21  H    0.153628
    22  H    0.153552
    23  H    0.129139
    24  H    0.132379
    25  H    0.130781
    26  H    0.131906
 Sum of Mulliken charges =  -0.00000

 Dipole moment (field-independent basis, Debye):
    X=              0.0000    Y=             -0.0000    Z=             -1.6955  Tot=              1.6955
 N-N= 4.328762305376D+02 E-N=-7.687044786187D+02  KE=-4.731251485700D+01
 Symmetry A    KE=-2.452592650532D+01
 Symmetry B    KE=-2.278658835168D+01
  Exact polarizability:  78.244  -3.899 206.628   0.000  -0.000  92.329
 Approx polarizability:  66.609   0.275 143.802   0.000  -0.000  78.187
 Calling FoFJK, ICntrl=    100127 FMM=F ISym2X=1 I1Cent= 0 IOpClX= 0 NMat=1 NMatS=1 NMatT=0.
 Full mass-weighted force constant matrix:
 Low frequencies ---   -1.1262   -0.6419   -0.5533    0.1090    0.2421    0.5137
 Low frequencies ---   19.8941   31.7408   41.6612
 Diagonal vibrational polarizability:

                      1                      2                      3
                      A                      A                      B
 Frequencies --     19.8941                31.7408                41.6612
 Red. masses --      4.7636                 3.7184                 4.2064
 Frc consts  --      0.0011                 0.0022                 0.0043
 IR Inten    --      0.1074                 0.0761                 0.7791
 Raman Activ --     10.7883                24.1730                 9.0342

                      4                      5                      6
                      A                      B                      B
 Frequencies --    157.8464               181.7455               204.9693
 Red. masses --      4.2498                 3.1071                 3.5722
 Frc consts  --      0.0624                 0.0605                 0.0884
 IR Inten    --      0.0165                11.4200                 0.8010
 Raman Activ --     10.0044                 0.0751                 3.1780

                      7                      8                      9
                      A                      B                      A
 Frequencies --    295.9006               370.3314               370.8631
 Red. masses --      4.8813                 2.3416                 2.3629
 Frc consts  --      0.2518                 0.1892                 0.1915
 IR Inten    --      0.0256                 0.4505                 0.1341
 Raman Activ --      5.6244                 0.1099                 0.0540

                     10                     11                     12
                      A                      B                      A
 Frequencies --    374.6551               461.6734               486.6870
 Red. masses --      4.1538                 2.5878                 2.5949
 Frc consts  --      0.3435                 0.3250                 0.3621
 IR Inten    --      0.0701                47.5094                 2.3129
 Raman Activ --      2.6146                 0.0737                 1.4329

                     13                     14                     15
                      B                      B                      A
 Frequencies --    539.0381               576.7820               626.0418
 Red. masses --      2.8874                 7.1466                 2.4056
 Frc consts  --      0.4943                 1.4008                 0.5555
 IR Inten    --     22.5538                 0.0349                 3.8764
 Raman Activ --      0.0622                 4.7132                 2.5677

                     16                     17                     18
                      A                      B                      B
 Frequencies --    655.5391               657.3284               660.2541
 Red. masses --      6.6559                 5.3695                 2.1361
 Frc consts  --      1.6852                 1.3669                 0.5486
 IR Inten    --      0.0168                 2.8709                14.3473
 Raman Activ --      9.7712                 3.5950                 4.0469

                     19                     20                     21
                      A                      A                      B
 Frequencies --    691.5379               786.6943               807.6852
 Red. masses --      3.3882                 1.2751                 1.3748
 Frc consts  --      0.9547                 0.4649                 0.5284
 IR Inten    --      7.0769                69.9145                70.2520
 Raman Activ --      1.5875                23.0000                 0.1462

                     22                     23                     24
                      A                      B                      B
 Frequencies --    842.1993               857.9662               882.4861
 Red. masses --      1.5258                 2.3300                 1.2543
 Frc consts  --      0.6377                 1.0105                 0.5755
 IR Inten    --     12.0555               274.9036                 0.4516
 Raman Activ --     16.1519                 3.5706                 0.4161

                     25                     26                     27
                      A                      A                      B
 Frequencies --    883.6232               940.1644               941.4902
 Red. masses --      1.2548                 1.8497                 1.6085
 Frc consts  --      0.5773                 0.9633                 0.8400
 IR Inten    --      0.0102                 3.2197                 6.1782
 Raman Activ --     11.7328                 7.5311                 5.1853

                     28                     29                     30
                      A                      B                      B
 Frequencies --    955.9543               963.4528               983.5101
 Red. masses --      3.0495                 3.0708                 1.5433
 Frc consts  --      1.6419                 1.6794                 0.8796
 IR Inten    --      3.3600                66.5812                 0.4497
 Raman Activ --      9.1356                 3.2912                 0.0671

                     31                     32                     33
                      A                      B                      A
 Frequencies --    984.0063              1002.0836              1002.2838
 Red. masses --      1.5431                 1.7284                 1.7336
 Frc consts  --      0.8803                 1.0226                 1.0261
 IR Inten    --      0.0111                 2.5273                 1.0595
 Raman Activ --      0.4679                 3.4845                 6.7126

                     34                     35                     36
                      A                      B                      A
 Frequencies --   1102.9977              1110.3016              1185.9806
 Red. masses --      2.7503                 2.3675                 1.2921
 Frc consts  --      1.9714                 1.7196                 1.0708
 IR Inten    --      0.1559                 2.1182                 0.1516
 Raman Activ --     26.0106                 4.1032                15.4285

                     37                     38                     39
                      B                      A                      B
 Frequencies --   1189.5005              1197.3825              1197.4367
 Red. masses --      1.2581                 1.1161                 1.1543
 Frc consts  --      1.0488                 0.9428                 0.9752
 IR Inten    --      0.2736                 1.3273                 1.2454
 Raman Activ --      6.2129                 9.9256                 9.4109

                     40                     41                     42
                      A                      B                      A
 Frequencies --   1199.2806              1199.6777              1262.2921
 Red. masses --      1.6349                 1.7222                 1.0524
 Frc consts  --      1.3855                 1.4604                 0.9879
 IR Inten    --      0.1856                 0.5007                 0.2264
 Raman Activ --     18.1571                 8.8957                21.6973

                     43                     44                     45
                      B                      A                      B
 Frequencies --   1262.5749              1334.8891              1335.1297
 Red. masses --      1.0526                 1.4262                 1.4156
 Frc consts  --      0.9886                 1.4974                 1.4867
 IR Inten    --      0.4142                 1.1292                 7.7074
 Raman Activ --     23.6416                30.5195                14.5128

                     46                     47                     48
                      A                      B                      A
 Frequencies --   1370.0175              1370.3133              1390.7155
 Red. masses --      2.7004                 2.8173                 4.1814
 Frc consts  --      2.9863                 3.1170                 4.7648
 IR Inten    --      4.7223                 7.8166                 0.0004
 Raman Activ --     12.6872                18.3151                74.1127

                     49                     50                     51
                      B                      A                      A
 Frequencies --   1454.1967              1499.3262              1534.8670
 Red. masses --      3.0878                 1.8868                 2.8806
 Frc consts  --      3.8472                 2.4990                 3.9982
 IR Inten    --     22.8879                 0.0327                 0.0143
 Raman Activ --      4.9653               187.2577                68.0086

                     52                     53                     54
                      B                      A                      B
 Frequencies --   1553.3063              1604.6182              1609.2584
 Red. masses --      2.6953                 2.9676                 2.3348
 Frc consts  --      3.8315                 4.5019                 3.5624
 IR Inten    --     31.3570                17.5806               116.6353
 Raman Activ --     14.6181                54.2956                 1.1724

                     55                     56                     57
                      A                      B                      A
 Frequencies --   1628.1453              1666.6373              1758.0871
 Red. masses --      4.9527                 3.1353                 8.4079
 Frc consts  --      7.7353                 5.1311                15.3115
 IR Inten    --      4.6044                76.2929                 0.3929
 Raman Activ --    194.1172                19.0859                 5.3505

                     58                     59                     60
                      B                      B                      A
 Frequencies --   1758.3980              1777.4767              1778.5863
 Red. masses --      7.0668                10.3206                10.3616
 Frc consts  --     12.8738                19.2115                19.3121
 IR Inten    --      0.3575                82.0940                 3.8124
 Raman Activ --      1.9161                60.3532               395.9103

                     61                     62                     63
                      A                      B                      B
 Frequencies --   3179.6437              3179.7377              3180.3480
 Red. masses --      1.0770                 1.0770                 1.0761
 Frc consts  --      6.4157                 6.4160                 6.4130
 IR Inten    --      0.3753                31.9374                 6.7693
 Raman Activ --     97.1620                55.5731                82.1756

                     64                     65                     66
                      A                      A                      B
 Frequencies --   3180.3726              3188.1186              3188.2754
 Red. masses --      1.0762                 1.0797                 1.0797
 Frc consts  --      6.4134                 6.4656                 6.4662
 IR Inten    --      6.4670                16.3736                66.8896
 Raman Activ --    136.8436               170.3565               140.3425

                     67                     68                     69
                      B                      A                      B
 Frequencies --   3189.0577              3189.0870              3201.6898
 Red. masses --      1.0804                 1.0804                 1.0880
 Frc consts  --      6.4739                 6.4738                 6.5710
 IR Inten    --     69.3148                73.0192                86.4273
 Raman Activ --     93.3622                97.0600               100.9617

                     70                     71                     72
                      A                      B                      A
 Frequencies --   3201.9328              3293.6027              3309.2996
 Red. masses --      1.0880                 1.0658                 1.0679
 Frc consts  --      6.5718                 6.8116                 6.8907
 IR Inten    --      7.6235                 2.0478                15.5591
 Raman Activ --    679.8676                89.8060               223.0156

 - Thermochemistry -
 -------------------
 Temperature   298.150 Kelvin.  Pressure   1.00000 Atm.
 Atom     1 has atomic number  7 and mass  14.00307

 Molecular mass:   184.10005 amu.
 Principal axes and moments of inertia in atomic units:
                           1         2         3
     Eigenvalues --   750.709006378.863136484.01148
           X           -0.08185   0.00000   0.99664
           Y            0.99664   0.00000   0.08185
           Z            0.00000   1.00000   0.00000
 This molecule is an asymmetric top.
 Rotational symmetry number  2.
 Warning -- assumption of classical behavior for rotation
           may cause significant error
 Rotational temperatures (Kelvin)      0.11538     0.01358     0.01336
 Rotational constants (GHZ):           2.40405     0.28293     0.27834
 Zero-point vibrational energy     580491.8 (Joules/Mol)
                                  138.74087 (Kcal/Mol)
 Warning -- explicit consideration of  14 degrees of freedom as
           vibrations may cause significant error
 Vibrational temperatures:     28.62    45.67    59.94   227.11   261.49
          (Kelvin)            294.90   425.73   532.82   533.59   539.04
                              664.24   700.23   775.55   829.86   900.73
                              943.17   945.75   949.96   994.97  1131.88
                             1162.08  1211.74  1234.42  1269.70  1271.34
                             1352.69  1354.59  1375.40  1386.19  1415.05
                             1415.76  1441.77  1442.06  1586.97  1597.47
                             1706.36  1711.42  1722.76  1722.84  1725.50
                             1726.07  1816.15  1816.56  1920.61  1920.95
                             1971.15  1971.57  2000.93  2092.26  2157.19
                             2208.33  2234.86  2308.68  2315.36  2342.54
                             2397.92  2529.49  2529.94  2557.39  2558.99
                             4574.79  4574.93  4575.81  4575.84  4586.99
                             4587.21  4588.34  4588.38  4606.51  4606.86
                             4738.75  4761.34

 Zero-point correction=                           0.221098 (Hartree/Particle)
 Thermal correction to Energy=                    0.232272
 Thermal correction to Enthalpy=                  0.233216
 Thermal correction to Gibbs Free Energy=         0.181908
 Sum of electronic and zero-point Energies=              0.358058
 Sum of electronic and thermal Energies=                 0.369233
 Sum of electronic and thermal Enthalpies=               0.370177
 Sum of electronic and thermal Free Energies=            0.318868

                     E (Thermal)             CV                S
                      KCal/Mol        Cal/Mol-Kelvin    Cal/Mol-Kelvin
 Total                  145.753             43.313            107.988
 Electronic               0.000              0.000              0.000
 Translational            0.889              2.981             41.537
 Rotational               0.889              2.981             30.430
 Vibrational            143.976             37.352             36.021
 Vibration     1          0.593              1.986              6.645
 Vibration     2          0.594              1.983              5.718
 Vibration     3          0.594              1.981              5.178
 Vibration     4          0.621              1.894              2.575
 Vibration     5          0.630              1.865              2.310
 Vibration     6          0.640              1.833              2.088
 Vibration     7          0.690              1.681              1.440
 Vibration     8          0.742              1.533              1.078
 Vibration     9          0.743              1.532              1.076
 Vibration    10          0.746              1.524              1.061
 Vibration    11          0.819              1.335              0.761
 Vibration    12          0.843              1.280              0.692
 Vibration    13          0.894              1.164              0.567
 Vibration    14          0.933              1.081              0.491

 Optimization completed.
    -- Stationary point found.
 Normal termination of Gaussian 09 at Tue Apr 12 01:36:25 2022.
