 Gaussian 09, Revision D.01,
 Gaussian 09:  AM64L-G09RevD.01 24-Apr-2013

 ------------------------------------
 #n ZINDO(NSTATE=10) pop=full gfinput
 ------------------------------------

 ----------
 UV-spectra
 ----------
 Symbolic Z-matrix:
 Charge =  0 Multiplicity = 1

                         Standard orientation:
 ---------------------------------------------------------------------
 Center     Atomic      Atomic             Coordinates (Angstroms)
 Number     Number       Type             X           Y           Z
 ---------------------------------------------------------------------
      1          6           0       -0.000000   -1.299564    0.000016
      2          6           0       -1.262977   -0.526767    0.000010
      3          6           0        1.262977   -0.526767    0.000010
      4          8           0       -0.000000   -2.537898   -0.000039
      5          6           0        0.000000    1.648645    0.000016
      6          6           0        1.259139    0.879403    0.000010
      7          8           0       -0.000000    2.889343   -0.000037
      8          6           0       -1.259139    0.879403    0.000009
      9          6           0       -2.469939   -1.225798    0.000007
     10          6           0        2.474490    1.574656    0.000006
     11          6           0       -2.474490    1.574656    0.000003
     12          6           0        2.469939   -1.225798    0.000005
     13          6           0       -3.680950   -0.510034    0.000003
     14          6           0       -3.687087    0.891177    0.000000
     15          6           0        3.680950   -0.510034    0.000002
     16          6           0        3.687087    0.891177    0.000003
     17          1           0       -2.479064   -2.327978    0.000007
     18          1           0        2.458792    2.678151    0.000005
     19          1           0       -2.458792    2.678151    0.000001
     20          1           0        2.479064   -2.327978    0.000004
     21          1           0       -4.636954    1.444807   -0.000004
     22          1           0        4.636954    1.444808    0.000000
     23          8           0       -4.830158   -1.261060    0.000001
     24          1           0       -5.586626   -0.655352    0.000001
     25          8           0        4.830158   -1.261060   -0.000001
     26          1           0        5.586626   -0.655352   -0.000006
 ---------------------------------------------------------------------

 SCF Done:  E(RZINDO/S) =  -132.234525859     A.U. after   14 cycles

 Excitation energies and oscillator strengths:

 Excited State   1:      Singlet-A      2.6225 eV  472.78 nm  f=0.0000  <S**2>=0.000
      39 -> 45        -0.33430
      39 -> 46         0.26963
      39 -> 49        -0.20322
      39 -> 50        -0.13051
      40 -> 45         0.47108
      40 -> 49         0.13462
 This state for optimization and/or second-order correction.
 Total Energy, E(CIS) =  -132.138151692
 Copying the excited state density for this state as the 1-particle RhoCI density.

 Excited State   2:      Singlet-A      2.7031 eV  458.68 nm  f=0.0000  <S**2>=0.000
      39 -> 45         0.45554
      39 -> 50        -0.11447
      40 -> 45         0.32104
      40 -> 46         0.29796
      40 -> 50        -0.24289

 Excited State   3:      Singlet-A      3.5796 eV  346.37 nm  f=0.1042  <S**2>=0.000
      43 -> 47         0.13245
      44 -> 45         0.67288

 Excited State   4:      Singlet-A      3.9884 eV  310.86 nm  f=0.0835  <S**2>=0.000
      41 -> 45        -0.29486
      41 -> 46        -0.11546
      42 -> 47         0.12285
      42 -> 48        -0.13822
      43 -> 45         0.53210
      43 -> 46        -0.13047
      44 -> 47         0.17030
      44 -> 48         0.14970

 Excited State   5:      Singlet-A      4.0315 eV  307.54 nm  f=0.0717  <S**2>=0.000
      41 -> 47        -0.16108
      42 -> 45         0.58117
      43 -> 47         0.10592
      43 -> 48         0.15336
      44 -> 46        -0.27515

 Excited State   6:      Singlet-A      4.4027 eV  281.61 nm  f=0.3110  <S**2>=0.000
      41 -> 45         0.44833
      42 -> 47        -0.14229
      43 -> 45         0.37894
      43 -> 46         0.25591
      44 -> 48        -0.21458

 Excited State   7:      Singlet-A      4.8618 eV  255.02 nm  f=1.2534  <S**2>=0.000
      42 -> 45         0.35634
      43 -> 48        -0.24371
      44 -> 46         0.51568

 Excited State   8:      Singlet-A      5.0222 eV  246.87 nm  f=0.1041  <S**2>=0.000
      41 -> 45         0.40187
      41 -> 46        -0.20419
      42 -> 48        -0.12594
      43 -> 45        -0.10260
      43 -> 46        -0.35648
      44 -> 47         0.20204
      44 -> 48         0.23687

 Excited State   9:      Singlet-A      5.2939 eV  234.20 nm  f=0.0959  <S**2>=0.000
      41 -> 45        -0.13851
      41 -> 46        -0.27311
      42 -> 48        -0.21538
      43 -> 45        -0.20701
      43 -> 46         0.27544
      43 -> 49        -0.13885
      44 -> 47         0.40766
      44 -> 48        -0.16782

 Excited State  10:      Singlet-A      5.3052 eV  233.70 nm  f=0.0059  <S**2>=0.000
      41 -> 48         0.25636
      42 -> 46         0.43768
      43 -> 47         0.33557
      43 -> 48        -0.15393
      44 -> 45        -0.14869
      44 -> 46         0.13676
      44 -> 49        -0.18150
      44 -> 50         0.10601

 The electronic state is 1-A.
 Alpha  occ. eigenvalues --   -1.72877  -1.68277  -1.63768  -1.59466  -1.54560
 Alpha  occ. eigenvalues --   -1.49441  -1.33741  -1.26077  -1.19222  -1.14228
 Alpha  occ. eigenvalues --   -1.02400  -0.99522  -0.95339  -0.94256  -0.90471
 Alpha  occ. eigenvalues --   -0.82523  -0.79593  -0.74519  -0.71334  -0.66829
 Alpha  occ. eigenvalues --   -0.66418  -0.61301  -0.60297  -0.59689  -0.59372
 Alpha  occ. eigenvalues --   -0.57879  -0.57485  -0.55849  -0.53833  -0.53445
 Alpha  occ. eigenvalues --   -0.53190  -0.51570  -0.49684  -0.48529  -0.47187
 Alpha  occ. eigenvalues --   -0.46724  -0.46342  -0.43625  -0.37585  -0.36660
 Alpha  occ. eigenvalues --   -0.35717  -0.35419  -0.33819  -0.32955
 Alpha virt. eigenvalues --   -0.06326  -0.01680   0.00227   0.00789   0.04844
 Alpha virt. eigenvalues --    0.04948   0.06013   0.08379   0.08863   0.09637
 Alpha virt. eigenvalues --    0.09950   0.10860   0.11037   0.12762   0.13052

 Mulliken charges:
               1
     1  C    0.322487
     2  C    0.018541
     3  C    0.018541
     4  O   -0.500811
     5  C    0.319458
     6  C   -0.004510
     7  O   -0.519939
     8  C   -0.004510
     9  C   -0.006366
    10  C    0.008016
    11  C    0.008016
    12  C   -0.006366
    13  C    0.157054
    14  C   -0.036463
    15  C    0.157054
    16  C   -0.036463
    17  H    0.064934
    18  H    0.057999
    19  H    0.057999
    20  H    0.064934
    21  H    0.041437
    22  H    0.041437
    23  O   -0.333503
    24  H    0.222265
    25  O   -0.333503
    26  H    0.222265
 Sum of Mulliken charges =   0.00000

 Dipole moment (field-independent basis, Debye):
    X=              0.0000    Y=              3.4614    Z=              0.0003  Tot=              3.4614
 N-N= 4.602657314712D+02 E-N= 0.000000000000D+00  KE=-1.114940169226D+03
 Orbital energies and kinetic energies (alpha):
                                 1                 2
   1         O                -1.728765        -13.898406
   2         O                -1.682775        -12.978430
   3         O                -1.637676        -13.003401
   4         O                -1.594664        -14.036677
   5         O                -1.545599        -13.197021
   6         O                -1.494406        -13.555025
   7         O                -1.337413        -13.596744

 Normal termination of Gaussian 09 at Tue Apr 12 00:36:00 2022.
