 Gaussian 09, Revision D.01,
 Gaussian 09:  AM64L-G09RevD.01 24-Apr-2013

 -----------------------
 #n PM3 Opt=modredundant
 -----------------------

 -------------------------
 Optimisation de geometrie
 -------------------------
 Symbolic Z-matrix:
 Charge =  0 Multiplicity = 1

 SCF Done:  E(RPM3) =  0.783483881125E-01 A.U. after   13 cycles
 SCF Done:  E(RPM3) =  0.770849375579E-01 A.U. after   10 cycles
 SCF Done:  E(RPM3) =  0.767132473851E-01 A.U. after   11 cycles
 SCF Done:  E(RPM3) =  0.767045071425E-01 A.U. after   10 cycles
 SCF Done:  E(RPM3) =  0.767040856049E-01 A.U. after   10 cycles
 Optimization completed.
    -- Stationary point found.
 SCF Done:  E(RPM3) =  0.767008519251E-01 A.U. after   13 cycles
 SCF Done:  E(RPM3) =  0.764812015973E-01 A.U. after   12 cycles
 SCF Done:  E(RPM3) =  0.764721655440E-01 A.U. after   10 cycles
 SCF Done:  E(RPM3) =  0.764715162611E-01 A.U. after    9 cycles
 Optimization completed.
 SCF Done:  E(RPM3) =  0.769531681217E-01 A.U. after   13 cycles
 SCF Done:  E(RPM3) =  0.770793204158E-01 A.U. after   11 cycles
 SCF Done:  E(RPM3) =  0.770684493942E-01 A.U. after   11 cycles
 SCF Done:  E(RPM3) =  0.770670306384E-01 A.U. after   10 cycles
    -- Stationary point found.
 SCF Done:  E(RPM3) =  0.776587364123E-01 A.U. after   13 cycles
 SCF Done:  E(RPM3) =  0.770675242267E-01 A.U. after   13 cycles
 SCF Done:  E(RPM3) =  0.767369766843E-01 A.U. after   12 cycles
 SCF Done:  E(RPM3) =  0.767159520042E-01 A.U. after   11 cycles
 SCF Done:  E(RPM3) =  0.767066624180E-01 A.U. after   10 cycles
 SCF Done:  E(RPM3) =  0.767045241153E-01 A.U. after   10 cycles
 SCF Done:  E(RPM3) =  0.767040881590E-01 A.U. after   10 cycles
 Optimization completed.
    -- Stationary point found.

                         Standard orientation:
 ---------------------------------------------------------------------
 Center     Atomic      Atomic             Coordinates (Angstroms)
 Number     Number       Type             X           Y           Z
 ---------------------------------------------------------------------
      1          6           0        2.829054   -1.134615   -0.405408
      2          6           0        1.439253   -1.134841   -0.405872
      3          6           0        0.734573    0.004523   -0.005657
      4          6           0        1.443832    1.137720    0.404011
      5          6           0        2.833613    1.131369    0.405236
      6          6           0        3.528666   -0.002907   -0.000438
      7          6           0       -0.734574    0.004233    0.006137
      8          6           0       -1.443493    1.137593   -0.403748
      9          6           0       -2.833259    1.131584   -0.405468
     10          6           0       -3.528666   -0.002555   -0.000001
     11          6           0       -2.829408   -1.134399    0.405181
     12          6           0       -1.439593   -1.134970    0.406132
     13          1           0       -0.895269   -2.029738    0.730096
     14          1           0        3.373621   -2.029035   -0.725221
     15          1           0        0.894426   -2.029409   -0.729582
     16          1           0        0.902522    2.032932    0.731733
     17          1           0        3.381739    2.022275    0.728763
     18          1           0        4.623357   -0.005251    0.000021
     19          1           0       -0.901682    2.032599   -0.731245
     20          1           0       -3.381078    2.022600   -0.729204
     21          1           0       -4.623357   -0.004670   -0.000750
     22          1           0       -3.374280   -2.028720    0.724760
 ---------------------------------------------------------------------

 The electronic state is 1-A.
 Alpha  occ. eigenvalues --   -1.50630  -1.40152  -1.15812  -1.11206  -1.07124
 Alpha  occ. eigenvalues --   -0.99315  -0.82089  -0.81986  -0.75900  -0.74406
 Alpha  occ. eigenvalues --   -0.69580  -0.62993  -0.61694  -0.58554  -0.57342
 Alpha  occ. eigenvalues --   -0.54616  -0.54170  -0.54071  -0.53198  -0.49855
 Alpha  occ. eigenvalues --   -0.47701  -0.47687  -0.46476  -0.45589  -0.44533
 Alpha  occ. eigenvalues --   -0.38028  -0.36040  -0.35959  -0.33349
 Alpha virt. eigenvalues --   -0.00766   0.01335   0.01409   0.02935   0.09751
 Alpha virt. eigenvalues --    0.10841   0.10905   0.11951   0.12418   0.12529
 Alpha virt. eigenvalues --    0.12817   0.13091   0.13285   0.13758   0.14360

 Mulliken charges:
               1
     1  C   -0.101444
     2  C   -0.095134
     3  C   -0.032141
     4  C   -0.094905
     5  C   -0.101498
     6  C   -0.101499
     7  C   -0.032141
     8  C   -0.094971
     9  C   -0.101480
    10  C   -0.101498
    11  C   -0.101462
    12  C   -0.095068
    13  H    0.108890
    14  H    0.102919
    15  H    0.108898
    16  H    0.108818
    17  H    0.102926
    18  H    0.103060
    19  H    0.108826
    20  H    0.102929
    21  H    0.103060
    22  H    0.102916
 Sum of Mulliken charges =   0.00000

 Dipole moment (field-independent basis, Debye):
    X=             -0.0000    Y=             -0.0052    Z=             -0.0001  Tot=              0.0052
 N-N= 3.195636099207D+02 E-N=-5.619936073536D+02  KE=-3.717911634658D+01
 1\1\GINC-GTX1080DELTA\Scan\RPM3\ZDO\C12H10\MVEROT\18-Apr-2022\0\\#n PM
 3 Opt=modredundant\\Optimisation de geometrie\\0,1\C,-3.0563981468,1.0
 889904352,-0.823442073\C,-1.672489754,1.2161774228,-0.810430653\C,-0.8
 985146786,0.405806288,0.0257261092\C,-1.533406258,-0.5245069071,0.8542
 438972\C,-2.9178523322,-0.6453999291,0.8392505774\C,-3.6815851999,0.15
 90139831,0.0002730003\C,0.5638326864,0.5452708401,0.0506800658\C,1.378
 8973066,-0.5869566146,0.1445184322\C,2.7623680876,-0.4550184421,0.1540
 298587\C,3.3458126315,0.8046301587,0.0695072557\C,2.5407051483,1.93446
 01599,-0.0279155842\C,1.1566974186,1.8081931231,-0.0408074908\H,0.5284

 Normal termination of Gaussian 09 at Mon Apr 18 01:03:45 2022.
