 Gaussian 09, Revision D.01,
 Gaussian 09:  AM64L-G09RevD.01 24-Apr-2013

 ----------
 #n AM1 Opt
 ----------

 ---------------------
 Geometry optimization
 ---------------------
 Symbolic Z-matrix:
 Charge =  0 Multiplicity = 1

 SCF Done:  E(RAM1) = -0.140743804634     A.U. after   16 cycles
 SCF Done:  E(RAM1) = -0.145050001964     A.U. after   15 cycles
 SCF Done:  E(RAM1) = -0.153967551492     A.U. after   14 cycles
 SCF Done:  E(RAM1) = -0.154322352079     A.U. after   12 cycles
 SCF Done:  E(RAM1) = -0.154412765668     A.U. after   11 cycles
 SCF Done:  E(RAM1) = -0.154419935035     A.U. after   11 cycles
 Optimization completed.
    -- Stationary point found.

                         Standard orientation:
 ---------------------------------------------------------------------
 Center     Atomic      Atomic             Coordinates (Angstroms)
 Number     Number       Type             X           Y           Z
 ---------------------------------------------------------------------
      1          6           0       -0.397596   -1.406188   -0.000030
      2          6           0       -1.418337   -0.351025   -0.000011
      3          6           0        1.028504   -1.006405   -0.000012
      4          8           0       -0.701383   -2.613493   -0.000042
      5          6           0        0.397595    1.406190   -0.000039
      6          6           0        1.418337    0.351026   -0.000013
      7          8           0        0.701380    2.613495   -0.000029
      8          6           0       -1.028505    1.006406   -0.000013
      9          6           0       -2.796119   -0.646746    0.000009
     10          6           0        2.796120    0.646745    0.000008
     11          6           0       -1.981913    2.021041    0.000006
     12          6           0        1.981912   -2.021041    0.000008
     13          6           0       -3.760502    0.393130    0.000029
     14          6           0       -3.348127    1.710551    0.000027
     15          6           0        3.348126   -1.710552    0.000030
     16          6           0        3.760502   -0.393131    0.000030
     17          1           0       -1.652780    3.073715    0.000002
     18          1           0        1.652778   -3.073715    0.000008
     19          1           0       -4.826645    0.119902    0.000046
     20          1           0       -4.091349    2.523342    0.000042
     21          1           0        4.826645   -0.119904    0.000047
     22          1           0        4.091347   -2.523344    0.000047
     23          8           0       -3.347520   -1.894675    0.000016
     24          1           0       -2.659783   -2.580400   -0.000005
     25          8           0        3.347524    1.894673    0.000011
     26          1           0        2.659792    2.580402   -0.000012
 ---------------------------------------------------------------------

 The electronic state is 1-A.
 Alpha  occ. eigenvalues --   -1.54977  -1.49602  -1.45888  -1.42925  -1.38948
 Alpha  occ. eigenvalues --   -1.37389  -1.25609  -1.16695  -1.14452  -1.13851
 Alpha  occ. eigenvalues --   -0.99913  -0.94387  -0.91417  -0.85169  -0.81829
 Alpha  occ. eigenvalues --   -0.76391  -0.71185  -0.70897  -0.69355  -0.64709
 Alpha  occ. eigenvalues --   -0.62619  -0.62188  -0.60717  -0.59804  -0.58731
 Alpha  occ. eigenvalues --   -0.57387  -0.57359  -0.57279  -0.54873  -0.54578
 Alpha  occ. eigenvalues --   -0.53713  -0.53550  -0.49805  -0.49415  -0.48349
 Alpha  occ. eigenvalues --   -0.47921  -0.47361  -0.47136  -0.42460  -0.40243
 Alpha  occ. eigenvalues --   -0.38824  -0.38265  -0.35477  -0.34881
 Alpha virt. eigenvalues --   -0.05988  -0.01756  -0.01262  -0.00087   0.04241
 Alpha virt. eigenvalues --    0.04378   0.07965   0.08410   0.08704   0.09686
 Alpha virt. eigenvalues --    0.09747   0.09937   0.11495   0.12115   0.12824

 Mulliken charges:
               1
     1  C    0.321553
     2  C   -0.204401
     3  C   -0.070665
     4  O   -0.327439
     5  C    0.321553
     6  C   -0.204401
     7  O   -0.327439
     8  C   -0.070665
     9  C    0.154607
    10  C    0.154606
    11  C   -0.120238
    12  C   -0.120238
    13  C   -0.151894
    14  C   -0.081097
    15  C   -0.081097
    16  C   -0.151894
    17  H    0.164376
    18  H    0.164376
    19  H    0.160677
    20  H    0.146270
    21  H    0.160677
    22  H    0.146270
    23  O   -0.253789
    24  H    0.262040
    25  O   -0.253789
    26  H    0.262040
 Sum of Mulliken charges =  -0.00000

 Dipole moment (field-independent basis, Debye):
    X=              0.0000    Y=              0.0000    Z=              0.0000  Tot=              0.0000
 N-N= 6.743641365196D+02 E-N=-1.219474380142D+03  KE=-6.239226217527D+01
 1\1\GINC-GTX1080DELTA\FOpt\RAM1\ZDO\C14H8O4\MVEROT\11-Apr-2022\0\\#n A
 M1 Opt\\Geometry optimization\\0,1\C,-0.0140770913,1.4721946105,0.0002
 853726\C,1.2615984374,0.7456040493,0.0001692931\C,-1.2708505432,0.6885
 433159,0.000108279\O,-0.0610328099,2.7162469126,0.0005455296\C,0.01128
 6029,-1.4503310296,-0.0003624542\C,-1.2643901596,-0.7237404362,-0.0002
 014704\O,0.0582435583,-2.6943832161,-0.0006236773\C,1.2680593724,-0.66
 66792346,-0.0001414637\C,2.5011735851,1.4158187808,0.0003602049\C,-2.5
 039665676,-1.39395412,-0.0003502344\C,2.4677393566,-1.3732489888,-0.00
 02543324\C,-2.4705298722,1.3951137067,0.0002607901\C,3.7184657651,0.68

 Normal termination of Gaussian 09 at Mon Apr 11 23:40:56 2022.
