 Gaussian 09, Revision D.01,
 Gaussian 09:  AM64L-G09RevD.01 24-Apr-2013

 ----------
 #n AM1 Opt
 ----------

 ---------------------
 Geometry optimization
 ---------------------
 Symbolic Z-matrix:
 Charge =  0 Multiplicity = 1

 SCF Done:  E(RAM1) = -0.647919724054E-02 A.U. after   15 cycles
 SCF Done:  E(RAM1) = -0.139920330399E-01 A.U. after   13 cycles
 SCF Done:  E(RAM1) = -0.163029123320E-01 A.U. after   13 cycles
 SCF Done:  E(RAM1) = -0.163684130493E-01 A.U. after   11 cycles
 SCF Done:  E(RAM1) = -0.163808916247E-01 A.U. after   10 cycles
 SCF Done:  E(RAM1) = -0.163818602189E-01 A.U. after   10 cycles
 Optimization completed.
    -- Stationary point found.

                         Standard orientation:
 ---------------------------------------------------------------------
 Center     Atomic      Atomic             Coordinates (Angstroms)
 Number     Number       Type             X           Y           Z
 ---------------------------------------------------------------------
      1          6           0        0.000000   -1.282241   -0.000070
      2          6           0       -1.263864   -0.509420   -0.000031
      3          6           0        1.263864   -0.509420   -0.000031
      4          8           0        0.000000   -2.522112   -0.000061
      5          6           0        0.000000    1.664569   -0.000053
      6          6           0        1.255678    0.895029   -0.000024
      7          8           0       -0.000000    2.906834   -0.000027
      8          6           0       -1.255678    0.895029   -0.000024
      9          6           0       -2.466983   -1.208406   -0.000004
     10          6           0        2.477463    1.580309    0.000011
     11          6           0       -2.477463    1.580309    0.000009
     12          6           0        2.466983   -1.208406   -0.000005
     13          6           0       -3.707690   -0.517012    0.000031
     14          6           0       -3.685899    0.900679    0.000036
     15          6           0        3.707690   -0.517012    0.000031
     16          6           0        3.685899    0.900679    0.000038
     17          1           0       -2.440618   -2.310680   -0.000011
     18          1           0        2.464922    2.684192    0.000015
     19          1           0       -2.464922    2.684192    0.000012
     20          1           0        2.440618   -2.310680   -0.000013
     21          1           0       -4.627644    1.469103    0.000062
     22          1           0        4.627644    1.469103    0.000065
     23          7           0       -4.894781   -1.208617    0.000059
     24          7           0        4.894781   -1.208618    0.000059
     25          1           0        5.751238   -0.720532    0.000073
     26          1           0        4.892726   -2.194715    0.000045
     27          1           0       -5.751238   -0.720532    0.000080
     28          1           0       -4.892726   -2.194715    0.000051
 ---------------------------------------------------------------------

 The electronic state is 1-A.
 Alpha  occ. eigenvalues --   -1.52186  -1.45817  -1.43398  -1.40731  -1.31427
 Alpha  occ. eigenvalues --   -1.30487  -1.19427  -1.16757  -1.12804  -1.07148
 Alpha  occ. eigenvalues --   -0.97382  -0.91073  -0.87258  -0.83782  -0.79568
 Alpha  occ. eigenvalues --   -0.74765  -0.69774  -0.67412  -0.66012  -0.64458
 Alpha  occ. eigenvalues --   -0.63740  -0.60286  -0.58577  -0.58284  -0.57791
 Alpha  occ. eigenvalues --   -0.54383  -0.54131  -0.53330  -0.53246  -0.52814
 Alpha  occ. eigenvalues --   -0.52361  -0.50577  -0.50485  -0.49411  -0.45672
 Alpha  occ. eigenvalues --   -0.44558  -0.43616  -0.42607  -0.40138  -0.38282
 Alpha  occ. eigenvalues --   -0.36821  -0.36565  -0.32041  -0.31427
 Alpha virt. eigenvalues --   -0.03630   0.00064   0.00884   0.01555   0.06059
 Alpha virt. eigenvalues --    0.06745   0.08553   0.08948   0.09739   0.10756
 Alpha virt. eigenvalues --    0.11914   0.11937   0.13463   0.13831   0.13860

 Mulliken charges:
               1
     1  C    0.302573
     2  C   -0.053574
     3  C   -0.053574
     4  O   -0.291585
     5  C    0.321225
     6  C   -0.172872
     7  O   -0.314739
     8  C   -0.172872
     9  C   -0.179523
    10  C   -0.033726
    11  C   -0.033726
    12  C   -0.179523
    13  C    0.136278
    14  C   -0.214778
    15  C    0.136278
    16  C   -0.214778
    17  H    0.155884
    18  H    0.157463
    19  H    0.157463
    20  H    0.155884
    21  H    0.136854
    22  H    0.136854
    23  N   -0.398391
    24  N   -0.398391
    25  H    0.227903
    26  H    0.229747
    27  H    0.227903
    28  H    0.229747
 Sum of Mulliken charges =  -0.00000

 Dipole moment (field-independent basis, Debye):
    X=              0.0000    Y=             -2.1343    Z=              0.0001  Tot=              2.1343
 N-N= 6.502906074412D+02 E-N=-1.173859183451D+03  KE=-6.189858256237D+01
 1\1\GINC-GTX1080DELTA\FOpt\RAM1\ZDO\C14H10N2O2\MVEROT\12-Apr-2022\0\\#
 n AM1 Opt\\Geometry optimization\\0,1\C,0.0043196816,1.4718832999,0.00
 02521259\C,1.2645834946,0.6932060542,0.0001413109\C,-1.2631165102,0.70
 49357354,0.0000963422\O,0.0100731481,2.7117403935,0.0005364785\C,-0.00
 93546766,-1.4748951496,-0.0003872002\C,-1.2614478223,-0.699536732,-0.0
 002089615\O,-0.0151192363,-2.7171466222,-0.0006377875\C,1.2498803871,-
 0.7111903882,-0.0001651241\C,2.4709332889,1.3866014108,0.0003455407\C,
 -2.4864000814,-1.3791398424,-0.0003487141\C,2.4684727735,-1.4021326883
 ,-0.0002627016\C,-2.462979091,1.4094969701,0.0002570707\C,3.7084189181

 Normal termination of Gaussian 09 at Tue Apr 12 01:07:51 2022.
