 Gaussian 09, Revision D.01,
 Gaussian 09:  AM64L-G09RevD.01 24-Apr-2013

 -----------------------
 #n PM3 Opt=modredundant
 -----------------------

 -------------------------
 Optimisation de geometrie
 -------------------------
 Symbolic Z-matrix:
 Charge =  0 Multiplicity = 1

 SCF Done:  E(RPM3) = -0.160340308821     A.U. after   13 cycles
 SCF Done:  E(RPM3) = -0.159062691761     A.U. after   12 cycles
 SCF Done:  E(RPM3) = -0.162377623834     A.U. after    9 cycles
 SCF Done:  E(RPM3) = -0.162041281754     A.U. after   12 cycles
 SCF Done:  E(RPM3) = -0.162883258089     A.U. after    9 cycles
 SCF Done:  E(RPM3) = -0.163032413288     A.U. after   12 cycles
 SCF Done:  E(RPM3) = -0.163079458123     A.U. after   11 cycles
 SCF Done:  E(RPM3) = -0.163095249950     A.U. after   10 cycles
 SCF Done:  E(RPM3) = -0.163099685804     A.U. after   10 cycles
 SCF Done:  E(RPM3) = -0.163100925654     A.U. after    9 cycles
 Optimization completed.
    -- Stationary point found.
 Optimization completed.
 SCF Done:  E(RPM3) = -0.162463073326     A.U. after   12 cycles
 SCF Done:  E(RPM3) = -0.163884699322     A.U. after   11 cycles
 SCF Done:  E(RPM3) = -0.163948123307     A.U. after   11 cycles
 SCF Done:  E(RPM3) = -0.163953084941     A.U. after   10 cycles
 SCF Done:  E(RPM3) = -0.163953354752     A.U. after    9 cycles
    -- Stationary point found.
 SCF Done:  E(RPM3) = -0.162962934775     A.U. after   12 cycles
 SCF Done:  E(RPM3) = -0.164376213795     A.U. after   11 cycles
 SCF Done:  E(RPM3) = -0.164414183961     A.U. after   11 cycles
 SCF Done:  E(RPM3) = -0.164415279774     A.U. after    9 cycles
 SCF Done:  E(RPM3) = -0.164415403919     A.U. after    9 cycles
 Optimization completed.
    -- Stationary point found.

                         Standard orientation:
 ---------------------------------------------------------------------
 Center     Atomic      Atomic             Coordinates (Angstroms)
 Number     Number       Type             X           Y           Z
 ---------------------------------------------------------------------
      1          6           0        1.384374    0.415106    0.094954
      2          8           0        1.514009   -0.974208   -0.043679
      3          6           0        0.025684    0.957449   -0.351202
      4          6           0       -1.152217    0.371942    0.430602
      5          8           0       -1.799764   -0.689623   -0.218031
      6          1           0        2.193792    0.802366   -0.548452
      7          1           0        1.604905    0.720644    1.136970
      8          1           0        0.962517   -1.377808    0.615657
      9          1           0       -0.114112    0.788823   -1.438536
     10          1           0        0.038601    2.056792   -0.222020
     11          1           0       -1.966354    1.108454    0.548312
     12          1           0       -0.842351    0.057356    1.447904
     13          1           0       -1.138004   -1.312960   -0.492281
 ---------------------------------------------------------------------

 The electronic state is 1-A.
 Alpha  occ. eigenvalues --   -1.48903  -1.36312  -1.16783  -0.93149  -0.79110
 Alpha  occ. eigenvalues --   -0.68793  -0.64276  -0.60995  -0.58583  -0.56810
 Alpha  occ. eigenvalues --   -0.51934  -0.50580  -0.47069  -0.43827  -0.42160
 Alpha  occ. eigenvalues --   -0.41139
 Alpha virt. eigenvalues --    0.10869   0.11517   0.11935   0.13044   0.13530
 Alpha virt. eigenvalues --    0.13827   0.14838   0.15900   0.16274   0.16734
 Alpha virt. eigenvalues --    0.19969   0.20590

 Mulliken charges:
               1
     1  C    0.067179
     2  O   -0.309288
     3  C   -0.189331
     4  C    0.069528
     5  O   -0.312713
     6  H    0.057407
     7  H    0.027100
     8  H    0.180908
     9  H    0.077287
    10  H    0.065676
    11  H    0.055535
    12  H    0.022415
    13  H    0.188297
 Sum of Mulliken charges =   0.00000

 Dipole moment (field-independent basis, Debye):
    X=              0.6589    Y=              0.9650    Z=              1.0765  Tot=              1.5888
 N-N= 1.367344211813D+02 E-N=-2.280490639238D+02  KE=-2.254014230735D+01
 1\1\GINC-GTX1080DELTA\Scan\RPM3\ZDO\C3H8O2\MVEROT\18-Apr-2022\0\\#n PM
 3 Opt=modredundant\\Optimisation de geometrie\\0,1\C,1.4001775247,2.53
 77626026,0.5743684112\O,1.1960198523,3.3291627767,1.7137636446\C,2.638
 8363971,1.6442301857,0.6553383686\C,2.6023891535,0.6540245453,1.821378
 4933\O,3.3122722193,1.0766091467,2.9547148513\H,1.5070133647,3.2875266
 084,-0.2290856277\H,0.4961892575,1.9350713575,0.3567586826\H,0.9235901
 922,2.7507308952,2.4158742584\H,3.5553923441,2.2665518503,0.7093223524
 \H,2.7176751685,1.0841709897,-0.2962537416\H,3.1093374834,-0.292698754
 3,1.5647768082\H,1.5594191706,0.4038337888,2.1033402037\H,3.0378878722

 Normal termination of Gaussian 09 at Mon Apr 18 00:15:21 2022.
