 Gaussian 09, Revision D.01,
 Gaussian 09:  AM64L-G09RevD.01 24-Apr-2013

 ----------
 #n PM3 Opt
 ----------

 -------------------------
 Optimisation de geometrie
 -------------------------
 Symbolic Z-matrix:
 Charge =  0 Multiplicity = 1

 SCF Done:  E(RPM3) = -0.168008282716     A.U. after   13 cycles
 SCF Done:  E(RPM3) = -0.137850970564     A.U. after   13 cycles
 SCF Done:  E(RPM3) = -0.168715086255     A.U. after   10 cycles
 SCF Done:  E(RPM3) = -0.170999723218     A.U. after   12 cycles
 SCF Done:  E(RPM3) = -0.171716713505     A.U. after   12 cycles
 SCF Done:  E(RPM3) = -0.171929197520     A.U. after   12 cycles
 SCF Done:  E(RPM3) = -0.172270595521     A.U. after   12 cycles
 SCF Done:  E(RPM3) = -0.172312986116     A.U. after   11 cycles
 SCF Done:  E(RPM3) = -0.172332607427     A.U. after   11 cycles
 SCF Done:  E(RPM3) = -0.172338284290     A.U. after   10 cycles
 SCF Done:  E(RPM3) = -0.172342601543     A.U. after   10 cycles
 SCF Done:  E(RPM3) = -0.172344694133     A.U. after   10 cycles
 SCF Done:  E(RPM3) = -0.172345654770     A.U. after   10 cycles
 SCF Done:  E(RPM3) = -0.172345858118     A.U. after    9 cycles
 Optimization completed.
    -- Stationary point found.

                         Standard orientation:
 ---------------------------------------------------------------------
 Center     Atomic      Atomic             Coordinates (Angstroms)
 Number     Number       Type             X           Y           Z
 ---------------------------------------------------------------------
      1          6           0        0.756747    1.117746    0.324987
      2          6           0        1.676970    0.027133   -0.230616
      3          8           0        1.341178   -1.266296    0.184370
      4          6           0       -0.612390    1.158145   -0.338879
      5          6           0       -1.626635    0.187789    0.264954
      6          8           0       -1.366654   -1.108666   -0.235057
      7          1           0        1.256756    2.094431    0.173203
      8          1           0        0.648858    1.004071    1.422298
      9          1           0        2.707935    0.152038    0.144612
     10          1           0        1.714554    0.073857   -1.337504
     11          1           0        0.418466   -1.400285   -0.039627
     12          1           0       -0.513435    0.981125   -1.429486
     13          1           0       -1.029916    2.179645   -0.238605
     14          1           0       -2.656094    0.479885   -0.020850
     15          1           0       -1.575436    0.192074    1.371879
     16          1           0       -1.936035   -1.702022    0.236904
 ---------------------------------------------------------------------

 The electronic state is 1-A.
 Alpha  occ. eigenvalues --   -1.49519  -1.36371  -1.23622  -1.01549  -0.84879
 Alpha  occ. eigenvalues --   -0.76001  -0.68396  -0.63679  -0.61283  -0.58445
 Alpha  occ. eigenvalues --   -0.57167  -0.53926  -0.51022  -0.48805  -0.46719
 Alpha  occ. eigenvalues --   -0.44896  -0.42861  -0.41364  -0.39097
 Alpha virt. eigenvalues --    0.10515   0.12162   0.12339   0.13195   0.13626
 Alpha virt. eigenvalues --    0.13884   0.14415   0.15559   0.16074   0.16682
 Alpha virt. eigenvalues --    0.17335   0.18087   0.18705   0.19376   0.23297

 Mulliken charges:
               1
     1  C   -0.141896
     2  C    0.078218
     3  O   -0.348614
     4  C   -0.114926
     5  C    0.071768
     6  O   -0.318139
     7  H    0.053381
     8  H    0.062263
     9  H    0.045344
    10  H    0.023621
    11  H    0.215741
    12  H    0.069329
    13  H    0.053228
    14  H    0.025364
    15  H    0.030372
    16  H    0.194947
 Sum of Mulliken charges =  -0.00000

 Dipole moment (field-independent basis, Debye):
    X=             -2.3182    Y=              1.4340    Z=              0.4270  Tot=              2.7592
 N-N= 1.788170974994D+02 E-N=-3.042714090253D+02  KE=-2.671542546930D+01
 1\1\GINC-GTX1080DELTA\FOpt\RPM3\ZDO\C4H10O2\MVEROT\17-Apr-2022\0\\#n P
 M3 Opt\\Optimisation de geometrie\\0,1\C,1.642413271,1.3196147312,2.02
 19179961\C,1.1228322031,2.3174145524,0.9829891716\O,1.5307242313,3.636
 886752,1.2078124727\C,3.1200895851,0.9894393686,1.8658936923\C,4.05642
 74874,1.9820416173,2.5535785619\O,4.1755692226,3.1314117922,1.73923727
 84\H,1.0547481744,0.386163115,1.9205407509\H,1.4376834036,1.6925010629
 ,3.0454878432\H,0.0212500792,2.3852447891,1.0176651269\H,1.4076537303,
 2.0002270079,-0.0402731615\H,2.4871968802,3.6254256565,1.2753024766\H,
 3.3795622283,0.8976681447,0.7912755939\H,3.3132618303,-0.0088579188,2.

 Normal termination of Gaussian 09 at Sun Apr 17 23:23:23 2022.
