 Gaussian 09, Revision D.01,
 Gaussian 09:  AM64L-G09RevD.01 24-Apr-2013

 ----------
 #n AM1 Opt
 ----------

 ---------------------
 Geometry optimization
 ---------------------
 Symbolic Z-matrix:
 Charge =  0 Multiplicity = 1

 SCF Done:  E(RAM1) = -0.665312030537E-02 A.U. after   16 cycles
 SCF Done:  E(RAM1) = -0.143363536148E-01 A.U. after   14 cycles
 SCF Done:  E(RAM1) = -0.167114059703E-01 A.U. after   13 cycles
 SCF Done:  E(RAM1) = -0.167758701189E-01 A.U. after   12 cycles
 SCF Done:  E(RAM1) = -0.167884205305E-01 A.U. after   11 cycles
 SCF Done:  E(RAM1) = -0.167891521941E-01 A.U. after   10 cycles
 Optimization completed.
    -- Stationary point found.

                         Standard orientation:
 ---------------------------------------------------------------------
 Center     Atomic      Atomic             Coordinates (Angstroms)
 Number     Number       Type             X           Y           Z
 ---------------------------------------------------------------------
      1          6           0       -0.221748   -1.456858   -0.000087
      2          6           0       -1.355543   -0.499689   -0.000039
      3          6           0        1.133419   -0.887702   -0.000041
      4          8           0       -0.417066   -2.682607   -0.000050
      5          6           0        0.221788    1.456854   -0.000085
      6          6           0        1.355558    0.499646   -0.000039
      7          8           0        0.417056    2.682620   -0.000052
      8          6           0       -1.133402    0.887746   -0.000041
      9          6           0       -2.650509   -1.006071    0.000002
     10          6           0        2.650601    1.006093    0.000003
     11          6           0       -2.236615    1.751745    0.000000
     12          6           0        2.236680   -1.751822   -0.000001
     13          6           0       -3.771844   -0.133378    0.000044
     14          6           0       -3.534427    1.264607    0.000042
     15          6           0        3.534359   -1.264679    0.000041
     16          6           0        3.771770    0.133492    0.000044
     17          1           0       -2.792028   -2.099702   -0.000000
     18          1           0        2.791903    2.099737    0.000001
     19          1           0       -2.056779    2.840850   -0.000003
     20          1           0        2.056494   -2.840871   -0.000004
     21          1           0       -4.378415    1.969939    0.000073
     22          1           0        4.378549   -1.969787    0.000072
     23          7           0       -5.049829   -0.636089    0.000087
     24          7           0        5.049807    0.636080    0.000089
     25          1           0       -5.822347   -0.023624    0.000111
     26          1           0       -5.197766   -1.611192    0.000085
     27          1           0        5.197848    1.611170    0.000081
     28          1           0        5.822257    0.023535    0.000109
 ---------------------------------------------------------------------

 The electronic state is 1-A.
 Alpha  occ. eigenvalues --   -1.52123  -1.45821  -1.43297  -1.40732  -1.31532
 Alpha  occ. eigenvalues --   -1.30437  -1.19783  -1.16031  -1.12863  -1.07707
 Alpha  occ. eigenvalues --   -0.96516  -0.92008  -0.86666  -0.83927  -0.79523
 Alpha  occ. eigenvalues --   -0.74773  -0.69606  -0.67583  -0.66067  -0.64992
 Alpha  occ. eigenvalues --   -0.62580  -0.61187  -0.58710  -0.57705  -0.57702
 Alpha  occ. eigenvalues --   -0.54418  -0.53511  -0.53439  -0.53389  -0.52838
 Alpha  occ. eigenvalues --   -0.52313  -0.51020  -0.50573  -0.49179  -0.45582
 Alpha  occ. eigenvalues --   -0.44556  -0.43605  -0.42674  -0.39977  -0.38377
 Alpha  occ. eigenvalues --   -0.36655  -0.36636  -0.31868  -0.31632
 Alpha virt. eigenvalues --   -0.03551   0.00031   0.00965   0.01540   0.06145
 Alpha virt. eigenvalues --    0.06733   0.08688   0.08843   0.09751   0.11038
 Alpha virt. eigenvalues --    0.11539   0.11911   0.13798   0.13831   0.14045

 Mulliken charges:
               1
     1  C    0.312009
     2  C   -0.045770
     3  C   -0.181552
     4  O   -0.304486
     5  C    0.312000
     6  C   -0.045703
     7  O   -0.304481
     8  C   -0.181561
     9  C   -0.181712
    10  C   -0.181836
    11  C   -0.030420
    12  C   -0.030478
    13  C    0.140114
    14  C   -0.219639
    15  C   -0.219533
    16  C    0.140117
    17  H    0.157650
    18  H    0.157661
    19  H    0.155638
    20  H    0.155659
    21  H    0.136724
    22  H    0.136718
    23  N   -0.396830
    24  N   -0.396832
    25  H    0.227910
    26  H    0.230361
    27  H    0.230363
    28  H    0.227906
 Sum of Mulliken charges =  -0.00000

 Dipole moment (field-independent basis, Debye):
    X=             -0.0001    Y=             -0.0006    Z=              0.0001  Tot=              0.0006
 N-N= 6.502320424146D+02 E-N=-1.173757319392D+03  KE=-6.189808538839D+01
 1\1\GINC-GTX1080DELTA\FOpt\RAM1\ZDO\C14H10N2O2\MVEROT\12-Apr-2022\0\\#
 n AM1 Opt\\Geometry optimization\\0,1\C,0.0000655305,1.48184433,0.0002
 272963\C,1.2618895447,0.7011631816,0.0001278579\C,-1.2570634704,0.7202
 383056,0.0000839632\O,0.013644651,2.7229831445,0.0005352771\C,-0.01168
 78296,-1.4654086278,-0.0004137685\C,-1.2734929677,-0.6846853501,-0.000
 2209759\O,-0.0252152482,-2.7065569378,-0.0006523435\C,1.2454702851,-0.
 7038463613,-0.00018019\C,2.4686662167,1.3918514074,0.0003425991\C,-2.4
 803355052,-1.3754490655,-0.0003521685\C,2.4633898808,-1.3968453603,-0.
 0002682362\C,-2.4750467846,1.4133500438,0.0002532965\C,3.7057847223,0.

 Normal termination of Gaussian 09 at Tue Apr 12 01:07:45 2022.
