 Gaussian 09, Revision D.01,
 Gaussian 09:  AM64L-G09RevD.01 24-Apr-2013

 -----------------------
 #n PM6 Opt=modredundant
 -----------------------

 -------------------------
 Optimisation de geometrie
 -------------------------
 Symbolic Z-matrix:
 Charge =  0 Multiplicity = 1

 SCF Done:  E(RPM6) = -0.147937956103     A.U. after   12 cycles
 SCF Done:  E(RPM6) = -0.150122553273     A.U. after   11 cycles
 SCF Done:  E(RPM6) = -0.150710896348     A.U. after   11 cycles
 SCF Done:  E(RPM6) = -0.150759369995     A.U. after   10 cycles
 SCF Done:  E(RPM6) = -0.150769480968     A.U. after   10 cycles
 SCF Done:  E(RPM6) = -0.150771792960     A.U. after    8 cycles
 SCF Done:  E(RPM6) = -0.150774568917     A.U. after   10 cycles
 SCF Done:  E(RPM6) = -0.150777738650     A.U. after   10 cycles
 SCF Done:  E(RPM6) = -0.150781590440     A.U. after   11 cycles
 SCF Done:  E(RPM6) = -0.150787011849     A.U. after   11 cycles
 Optimization completed.
    -- Stationary point found.
 Optimization completed.
 SCF Done:  E(RPM6) = -0.153130102429     A.U. after   11 cycles
 SCF Done:  E(RPM6) = -0.153166229927     A.U. after   10 cycles
 SCF Done:  E(RPM6) = -0.151520426410     A.U. after   11 cycles
 SCF Done:  E(RPM6) = -0.153116435724     A.U. after   11 cycles
 SCF Done:  E(RPM6) = -0.153153344458     A.U. after   11 cycles
 SCF Done:  E(RPM6) = -0.153153500489     A.U. after    8 cycles
    -- Stationary point found.
 SCF Done:  E(RPM6) = -0.151379437585     A.U. after   11 cycles
 SCF Done:  E(RPM6) = -0.152997853551     A.U. after   11 cycles
 SCF Done:  E(RPM6) = -0.153039086221     A.U. after   11 cycles
 SCF Done:  E(RPM6) = -0.153039468692     A.U. after    8 cycles
 Optimization completed.
    -- Stationary point found.

                         Standard orientation:
 ---------------------------------------------------------------------
 Center     Atomic      Atomic             Coordinates (Angstroms)
 Number     Number       Type             X           Y           Z
 ---------------------------------------------------------------------
      1          6           0        0.717907   -0.581480    0.301755
      2          8           0        1.450572    0.555234   -0.166007
      3          6           0       -0.690736   -0.603797   -0.302048
      4          8           0       -1.390212    0.593371    0.064265
      5          1           0        0.695537   -0.545456    1.406371
      6          1           0        1.331359   -1.441397   -0.027513
      7          1           0        0.858042    1.346340   -0.175809
      8          1           0       -1.268193   -1.492272    0.001281
      9          1           0       -0.662383   -0.535219   -1.408943
     10          1           0       -1.600264    0.590828    1.020310
 ---------------------------------------------------------------------

 The electronic state is 1-A.
 Alpha  occ. eigenvalues --   -1.12892  -1.07729  -0.96128  -0.83402  -0.68128
 Alpha  occ. eigenvalues --   -0.64357  -0.59890  -0.57367  -0.52884  -0.47337
 Alpha  occ. eigenvalues --   -0.46427  -0.41038  -0.38371
 Alpha virt. eigenvalues --    0.07670   0.09707   0.11929   0.16988   0.18156
 Alpha virt. eigenvalues --    0.18789   0.19044   0.20355   0.21531

 Mulliken charges:
               1
     1  C   -0.052204
     2  O   -0.537090
     3  C   -0.067667
     4  O   -0.537008
     5  H    0.122278
     6  H    0.151768
     7  H    0.322339
     8  H    0.125004
     9  H    0.167027
    10  H    0.305553
 Sum of Mulliken charges =   0.00000

 Dipole moment (field-independent basis, Debye):
    X=             -1.3405    Y=             -1.8215    Z=              1.5247  Tot=              2.7276
 N-N= 9.992935305645D+01 E-N=-1.686981877168D+02  KE=-1.394761692983D+01
 1\1\GINC-GTX1080DELTA\Scan\RPM6\ZDO\C2H6O2\MVEROT\18-Apr-2022\0\\#n PM
 6 Opt=modredundant\\Optimisation de geometrie\\0,1\C,1.4971559465,2.15
 78338437,2.1982786839\O,0.8299974577,3.1349549814,1.3933861046\C,2.101
 7225784,1.0553799471,1.3216669744\O,1.0628274302,0.4170516692,0.566751
 4814\H,0.7686124143,1.7565009148,2.9263785571\H,2.2696077646,2.7426403
 787,2.7326163811\H,0.3228566898,2.6796680476,0.6774550674\H,2.66359596
 5,0.3088794094,1.9063779948\H,2.7517105552,1.475288578,0.5267352306\H,
 0.4852131982,-0.11159777,1.1541535248\\Version=AM64L-G09RevD.01\State=
 1-A\HF=-0.1519427,-0.1519261,-0.1521017,-0.152367,-0.1526082,-0.152767

 Normal termination of Gaussian 09 at Mon Apr 18 00:24:29 2022.
