 Gaussian 09, Revision D.01,
 Gaussian 09:  AM64L-G09RevD.01 24-Apr-2013

 ------------------------------------
 #n ZINDO(NSTATE=10) pop=full gfinput
 ------------------------------------

 ----------
 UV-spectra
 ----------
 Symbolic Z-matrix:
 Charge =  0 Multiplicity = 1

                         Standard orientation:
 ---------------------------------------------------------------------
 Center     Atomic      Atomic             Coordinates (Angstroms)
 Number     Number       Type             X           Y           Z
 ---------------------------------------------------------------------
      1          6           0       -0.209583    1.462551   -0.000049
      2          6           0       -1.349771    0.515734   -0.000025
      3          6           0        1.145737    0.881629   -0.000025
      4          8           0       -0.391358    2.688412    0.000036
      5          6           0        0.211550   -1.454822   -0.000044
      6          6           0        1.349969   -0.507087   -0.000025
      7          8           0        0.396159   -2.680977    0.000031
      8          6           0       -1.143850   -0.875685   -0.000024
      9          6           0       -2.644506    1.033159   -0.000008
     10          6           0        2.647884   -1.022693   -0.000007
     11          6           0       -2.246385   -1.738944   -0.000003
     12          6           0        2.251611    1.744858   -0.000005
     13          6           0       -3.740161    0.150368    0.000009
     14          6           0       -3.544694   -1.237200    0.000012
     15          6           0        3.548774    1.246625    0.000011
     16          6           0        3.742247   -0.144905    0.000010
     17          1           0       -2.812019    2.122647   -0.000010
     18          1           0        2.798429   -2.114313   -0.000007
     19          1           0       -2.072380   -2.828709   -0.000001
     20          1           0        2.076900    2.834761   -0.000005
     21          1           0       -4.405016   -1.921719    0.000027
     22          1           0        4.419122    1.918600    0.000026
     23          8           0       -4.985157    0.728160    0.000025
     24          1           0       -5.646971    0.020196    0.000031
     25          8           0        5.042261   -0.585376    0.000028
     26          1           0        5.033763   -1.554741    0.000018
 ---------------------------------------------------------------------

 SCF Done:  E(RZINDO/S) =  -132.235405847     A.U. after   14 cycles

 Excitation energies and oscillator strengths:

 Excited State   1:      Singlet-A      2.6328 eV  470.93 nm  f=0.0000  <S**2>=0.000
      39 -> 46         0.27172
      39 -> 49        -0.21880
      40 -> 45         0.57230
      40 -> 50         0.16283
 This state for optimization and/or second-order correction.
 Total Energy, E(CIS) =  -132.138653466
 Copying the excited state density for this state as the 1-particle RhoCI density.

 Excited State   2:      Singlet-A      2.6934 eV  460.33 nm  f=0.0000  <S**2>=0.000
      39 -> 45         0.56101
      39 -> 50         0.16440
      40 -> 46         0.28692
      40 -> 49        -0.22541

 Excited State   3:      Singlet-A      3.5895 eV  345.41 nm  f=0.0007  <S**2>=0.000
      43 -> 47         0.11665
      44 -> 45         0.67232

 Excited State   4:      Singlet-A      3.8947 eV  318.34 nm  f=0.2814  <S**2>=0.000
      41 -> 45         0.29337
      41 -> 48         0.10806
      42 -> 47        -0.14883
      43 -> 45         0.53906
      43 -> 48        -0.10584
      44 -> 46        -0.19215
      44 -> 47         0.11232

 Excited State   5:      Singlet-A      4.0965 eV  302.66 nm  f=0.0000  <S**2>=0.000
      41 -> 45         0.13084
      41 -> 47        -0.17061
      42 -> 45         0.55288
      43 -> 46         0.22251
      43 -> 47        -0.10647
      44 -> 48         0.24105

 Excited State   6:      Singlet-A      4.3674 eV  283.89 nm  f=0.3817  <S**2>=0.000
      41 -> 45         0.42065
      42 -> 47        -0.10773
      43 -> 45        -0.38065
      43 -> 48        -0.19972
      44 -> 46        -0.28643

 Excited State   7:      Singlet-A      4.9075 eV  252.64 nm  f=1.2826  <S**2>=0.000
      41 -> 45         0.39625
      41 -> 48        -0.12313
      42 -> 45        -0.13760
      42 -> 46         0.13247
      43 -> 48         0.19184
      44 -> 46         0.46987

 Excited State   8:      Singlet-A      4.9863 eV  248.65 nm  f=0.0070  <S**2>=0.000
      41 -> 45        -0.13112
      41 -> 46        -0.12997
      41 -> 47        -0.10356
      42 -> 45        -0.35131
      42 -> 50        -0.11725
      43 -> 46         0.43183
      43 -> 47        -0.10159
      44 -> 48         0.30433

 Excited State   9:      Singlet-A      5.2975 eV  234.04 nm  f=0.0005  <S**2>=0.000
      41 -> 46         0.37494
      42 -> 48        -0.27707
      43 -> 46         0.24358
      43 -> 47         0.35933
      44 -> 45        -0.13737
      44 -> 50        -0.19674

 Excited State  10:      Singlet-A      5.3093 eV  233.52 nm  f=0.0720  <S**2>=0.000
      41 -> 48         0.19028
      42 -> 46        -0.32323
      43 -> 45        -0.20557
      43 -> 48         0.14377
      43 -> 50        -0.18281
      44 -> 47         0.46162

 The electronic state is 1-A.
 Alpha  occ. eigenvalues --   -1.72966  -1.68322  -1.63734  -1.59593  -1.54506
 Alpha  occ. eigenvalues --   -1.49614  -1.34077  -1.24774  -1.21202  -1.12845
 Alpha  occ. eigenvalues --   -1.03951  -0.98981  -0.95723  -0.93174  -0.88763
 Alpha  occ. eigenvalues --   -0.86207  -0.78746  -0.72785  -0.71937  -0.67921
 Alpha  occ. eigenvalues --   -0.66192  -0.60534  -0.60338  -0.59439  -0.59342
 Alpha  occ. eigenvalues --   -0.58713  -0.57874  -0.55891  -0.54598  -0.53225
 Alpha  occ. eigenvalues --   -0.52469  -0.51684  -0.49807  -0.48274  -0.47337
 Alpha  occ. eigenvalues --   -0.47166  -0.46147  -0.43688  -0.37644  -0.36772
 Alpha  occ. eigenvalues --   -0.35685  -0.35545  -0.33734  -0.33113
 Alpha virt. eigenvalues --   -0.06419  -0.01726   0.00225   0.00715   0.04821
 Alpha virt. eigenvalues --    0.04878   0.05946   0.08314   0.08834   0.09576
 Alpha virt. eigenvalues --    0.09950   0.10797   0.11117   0.12639   0.12963

 Mulliken charges:
               1
     1  C    0.320881
     2  C    0.020255
     3  C   -0.004881
     4  O   -0.508586
     5  C    0.321234
     6  C    0.019339
     7  O   -0.514100
     8  C   -0.006371
     9  C   -0.006626
    10  C   -0.018885
    11  C    0.008783
    12  C    0.008797
    13  C    0.158612
    14  C   -0.037574
    15  C   -0.025903
    16  C    0.157927
    17  H    0.065249
    18  H    0.057445
    19  H    0.057656
    20  H    0.057644
    21  H    0.041452
    22  H    0.049215
    23  O   -0.332935
    24  H    0.222384
    25  O   -0.335248
    26  H    0.224236
 Sum of Mulliken charges =   0.00000

 Dipole moment (field-independent basis, Debye):
    X=             -1.4398    Y=             -3.4128    Z=             -0.0004  Tot=              3.7041
 N-N= 4.602954231342D+02 E-N= 0.000000000000D+00  KE=-1.114961042201D+03
 Orbital energies and kinetic energies (alpha):
                                 1                 2
   1         O                -1.729663        -13.902093
   2         O                -1.683219        -12.983090
   3         O                -1.637335        -13.001483
   4         O                -1.595926        -14.025917
   5         O                -1.545057        -13.205184
   6         O                -1.496136        -13.558611
   7         O                -1.340772        -13.579507

 Normal termination of Gaussian 09 at Tue Apr 12 00:35:58 2022.
