 Gaussian 09, Revision D.01,
 Gaussian 09:  AM64L-G09RevD.01 24-Apr-2013

 ----------
 #n PM6 Opt
 ----------

 -------------------------
 Optimisation de geometrie
 -------------------------
 Symbolic Z-matrix:
 Charge =  0 Multiplicity = 1

 SCF Done:  E(RPM6) = -0.147937956103     A.U. after   12 cycles
 SCF Done:  E(RPM6) = -0.150223591224     A.U. after   11 cycles
 SCF Done:  E(RPM6) = -0.150838027049     A.U. after   11 cycles
 SCF Done:  E(RPM6) = -0.150952174493     A.U. after   10 cycles
 SCF Done:  E(RPM6) = -0.151070914886     A.U. after   11 cycles
 SCF Done:  E(RPM6) = -0.151170555686     A.U. after   11 cycles
 SCF Done:  E(RPM6) = -0.151374308319     A.U. after   12 cycles
 SCF Done:  E(RPM6) = -0.151431969574     A.U. after   11 cycles
 SCF Done:  E(RPM6) = -0.151443504563     A.U. after   11 cycles
 SCF Done:  E(RPM6) = -0.151447211231     A.U. after   10 cycles
 SCF Done:  E(RPM6) = -0.151456096669     A.U. after   11 cycles
 SCF Done:  E(RPM6) = -0.151460580226     A.U. after   10 cycles
 SCF Done:  E(RPM6) = -0.151465838391     A.U. after   10 cycles
 SCF Done:  E(RPM6) = -0.151466700431     A.U. after    9 cycles
 SCF Done:  E(RPM6) = -0.151466744612     A.U. after    8 cycles
 Optimization completed.
    -- Stationary point found.

                         Standard orientation:
 ---------------------------------------------------------------------
 Center     Atomic      Atomic             Coordinates (Angstroms)
 Number     Number       Type             X           Y           Z
 ---------------------------------------------------------------------
      1          6           0        0.648308    0.497562   -0.395165
      2          8           0        1.485882   -0.482648    0.252329
      3          6           0       -0.659592    0.469699    0.401527
      4          8           0       -1.605645   -0.412728   -0.210998
      5          1           0        0.487356    0.207576   -1.449215
      6          1           0        1.147560    1.480638   -0.344360
      7          1           0        2.322397   -0.589677   -0.238614
      8          1           0       -1.179642    1.445502    0.382781
      9          1           0       -0.475822    0.152305    1.446706
     10          1           0       -1.276052   -1.336901   -0.166119
 ---------------------------------------------------------------------

 The electronic state is 1-A.
 Alpha  occ. eigenvalues --   -1.11618  -1.08433  -0.96344  -0.81561  -0.69494
 Alpha  occ. eigenvalues --   -0.63696  -0.59648  -0.56178  -0.52304  -0.48199
 Alpha  occ. eigenvalues --   -0.45398  -0.40021  -0.38852
 Alpha virt. eigenvalues --    0.08406   0.09494   0.12204   0.18006   0.18713
 Alpha virt. eigenvalues --    0.19025   0.19463   0.20699   0.21359

 Mulliken charges:
               1
     1  C   -0.064704
     2  O   -0.556628
     3  C   -0.010962
     4  O   -0.541894
     5  H    0.136059
     6  H    0.124105
     7  H    0.308543
     8  H    0.148465
     9  H    0.142183
    10  H    0.314834
 Sum of Mulliken charges =  -0.00000

 Dipole moment (field-independent basis, Debye):
    X=              1.8727    Y=              0.8591    Z=             -0.7311  Tot=              2.1862
 N-N= 9.922080947093D+01 E-N=-1.673774860247D+02  KE=-1.393212217819D+01
 1\1\GINC-GTX1080DELTA\FOpt\RPM6\ZDO\C2H6O2\MVEROT\17-Apr-2022\0\\#n PM
 6 Opt\\Optimisation de geometrie\\0,1\C,1.1000647336,2.2138910619,1.59
 94749711\O,1.3483603212,2.0533656082,3.0116265365\C,1.3267130842,0.818
 495567,1.0098994233\O,2.668382067,0.6848250308,0.5293415156\H,1.809087
 3069,2.9509685592,1.1811201561\H,0.0626421329,2.5634560903,1.458651769
 1\H,1.3009204563,2.9169731461,3.4634764893\H,0.7180830513,0.6456115953
 ,0.1028849135\H,1.1213034855,0.0350504983,1.7654985887\H,3.2977433612,
 0.7339628427,1.2818256368\\Version=AM64L-G09RevD.01\State=1-A\HF=-0.15
 14667\RMSD=4.645e-09\RMSF=8.049e-06\Dipole=-0.459503,0.6898423,0.22971

 Normal termination of Gaussian 09 at Sun Apr 17 23:24:04 2022.
