 Gaussian 09, Revision D.01,
 Gaussian 09:  AM64L-G09RevD.01 24-Apr-2013

 -----------------------
 #n AM1 Opt=modredundant
 -----------------------

 -------------------------
 Optimisation de geometrie
 -------------------------
 Symbolic Z-matrix:
 Charge =  0 Multiplicity = 1

 SCF Done:  E(RAM1) = -0.186823177163     A.U. after   13 cycles
 SCF Done:  E(RAM1) = -0.183338515541     A.U. after   12 cycles
 SCF Done:  E(RAM1) = -0.190176061915     A.U. after   10 cycles
 SCF Done:  E(RAM1) = -0.193527470982     A.U. after   11 cycles
 SCF Done:  E(RAM1) = -0.195238257616     A.U. after   12 cycles
 SCF Done:  E(RAM1) = -0.194915543813     A.U. after   12 cycles
 SCF Done:  E(RAM1) = -0.195531323989     A.U. after    8 cycles
 SCF Done:  E(RAM1) = -0.195300758047     A.U. after   12 cycles
 SCF Done:  E(RAM1) = -0.195714196761     A.U. after    9 cycles
 SCF Done:  E(RAM1) = -0.195783983265     A.U. after   10 cycles
 Optimization completed.
    -- Stationary point found.
 Optimization completed.
 SCF Done:  E(RAM1) = -0.195249553533     A.U. after   10 cycles
 SCF Done:  E(RAM1) = -0.195250284064     A.U. after    9 cycles
 SCF Done:  E(RAM1) = -0.195250314435     A.U. after    9 cycles
    -- Stationary point found.
 SCF Done:  E(RAM1) = -0.194177500231     A.U. after   12 cycles
 SCF Done:  E(RAM1) = -0.195765268507     A.U. after   11 cycles
 SCF Done:  E(RAM1) = -0.195828668094     A.U. after   11 cycles
 SCF Done:  E(RAM1) = -0.195833438117     A.U. after   10 cycles
 SCF Done:  E(RAM1) = -0.195838724288     A.U. after   10 cycles
 SCF Done:  E(RAM1) = -0.195839576541     A.U. after   10 cycles
 SCF Done:  E(RAM1) = -0.195839628030     A.U. after    9 cycles
 Optimization completed.
    -- Stationary point found.

                         Standard orientation:
 ---------------------------------------------------------------------
 Center     Atomic      Atomic             Coordinates (Angstroms)
 Number     Number       Type             X           Y           Z
 ---------------------------------------------------------------------
      1          6           0        0.766536   -1.156697   -0.192459
      2          6           0        1.523706    0.013970    0.416524
      3          8           0        1.470741    1.167249   -0.399232
      4          6           0       -0.697907   -1.198325    0.182556
      5          6           0       -1.515606   -0.063986   -0.412200
      6          8           0       -1.374154    1.068254    0.435832
      7          1           0        1.247443   -2.108280    0.157534
      8          1           0        0.871680   -1.114174   -1.308738
      9          1           0        2.619726   -0.228420    0.479659
     10          1           0        1.131003    0.243753    1.442890
     11          1           0        0.571111    1.514140   -0.344350
     12          1           0       -0.802018   -1.171483    1.299844
     13          1           0       -1.137333   -2.164832   -0.180670
     14          1           0       -2.598241   -0.359190   -0.467802
     15          1           0       -1.154226    0.194870   -1.444225
     16          1           0       -1.982217    1.739825    0.106530
 ---------------------------------------------------------------------

 The electronic state is 1-A.
 Alpha  occ. eigenvalues --   -1.43969  -1.37514  -1.25081  -1.05830  -0.89588
 Alpha  occ. eigenvalues --   -0.78779  -0.69273  -0.65551  -0.61061  -0.56929
 Alpha  occ. eigenvalues --   -0.56184  -0.53681  -0.50862  -0.48885  -0.46151
 Alpha  occ. eigenvalues --   -0.43279  -0.42590  -0.41026  -0.39380
 Alpha virt. eigenvalues --    0.11865   0.13072   0.13680   0.14122   0.14537
 Alpha virt. eigenvalues --    0.15302   0.16058   0.16219   0.17371   0.17448
 Alpha virt. eigenvalues --    0.17780   0.18478   0.18746   0.21995   0.24725

 Mulliken charges:
               1
     1  C   -0.196314
     2  C   -0.013395
     3  O   -0.337836
     4  C   -0.162394
     5  C   -0.025386
     6  O   -0.340092
     7  H    0.085171
     8  H    0.093670
     9  H    0.095518
    10  H    0.072480
    11  H    0.208415
    12  H    0.100466
    13  H    0.085182
    14  H    0.063147
    15  H    0.069211
    16  H    0.202156
 Sum of Mulliken charges =  -0.00000

 Dipole moment (field-independent basis, Debye):
    X=             -2.1908    Y=             -1.0891    Z=             -0.3368  Tot=              2.4697
 N-N= 1.817183486304D+02 E-N=-3.117044742486D+02  KE=-2.501162129898D+01
 1\1\GINC-GTX1080DELTA\Scan\RAM1\ZDO\C4H10O2\MVEROT\18-Apr-2022\0\\#n A
 M1 Opt=modredundant\\Optimisation de geometrie\\0,1\C,2.0024925899,2.9
 489461861,1.2939084203\C,0.9754059043,2.0363133455,1.9472245569\O,0.99
 75732543,0.731423852,1.4040046388\C,3.3625075547,2.9090464573,1.954006
 8835\C,4.0898539972,1.5862359294,1.7801369666\O,3.6229639927,0.6952726
 492,2.7847928306\H,1.6186087893,4.0023896654,1.3404507803\H,2.09747156
 19,2.670109694,0.2112392328\H,-0.0629395401,2.4078625824,1.7286175011\
 H,1.1340063763,1.99919095,3.0580395492\H,1.8075546114,0.307056746,1.71
 46845917\H,3.2556304232,3.1210603956,3.0510567458\H,4.0047014341,3.714

 Normal termination of Gaussian 09 at Mon Apr 18 00:08:44 2022.
