 Gaussian 09, Revision D.01,
 Gaussian 09:  AM64L-G09RevD.01 24-Apr-2013

 ----------
 #n PM3 Opt
 ----------

 -------------------------
 Optimisation de geometrie
 -------------------------
 Symbolic Z-matrix:
 Charge =  0 Multiplicity = 1

 SCF Done:  E(RPM3) = -0.160340308821     A.U. after   13 cycles
 SCF Done:  E(RPM3) = -0.157524984381     A.U. after   12 cycles
 SCF Done:  E(RPM3) = -0.162288090853     A.U. after   10 cycles
 SCF Done:  E(RPM3) = -0.161758524698     A.U. after   12 cycles
 SCF Done:  E(RPM3) = -0.162850577052     A.U. after    9 cycles
 SCF Done:  E(RPM3) = -0.163037973322     A.U. after   12 cycles
 SCF Done:  E(RPM3) = -0.163074934367     A.U. after   11 cycles
 SCF Done:  E(RPM3) = -0.163098358961     A.U. after   11 cycles
 SCF Done:  E(RPM3) = -0.163107099250     A.U. after   11 cycles
 SCF Done:  E(RPM3) = -0.163108952062     A.U. after   10 cycles
 SCF Done:  E(RPM3) = -0.163109646150     A.U. after    9 cycles
 SCF Done:  E(RPM3) = -0.163109981841     A.U. after    9 cycles
 SCF Done:  E(RPM3) = -0.163110353236     A.U. after    9 cycles
 SCF Done:  E(RPM3) = -0.163110531982     A.U. after    9 cycles
 Optimization completed.
    -- Stationary point found.

                         Standard orientation:
 ---------------------------------------------------------------------
 Center     Atomic      Atomic             Coordinates (Angstroms)
 Number     Number       Type             X           Y           Z
 ---------------------------------------------------------------------
      1          6           0        1.258016    0.461479    0.214904
      2          8           0        1.279888   -0.907907   -0.138077
      3          6           0       -0.033422    1.062658   -0.336490
      4          6           0       -1.271782    0.394104    0.263773
      5          8           0       -1.412646   -0.952056   -0.102887
      6          1           0        2.144032    0.967812   -0.213931
      7          1           0        1.309292    0.575598    1.315862
      8          1           0        1.988840   -1.306096    0.348084
      9          1           0       -0.053540    0.978700   -1.441395
     10          1           0       -0.050035    2.145593   -0.111150
     11          1           0       -2.201677    0.868206   -0.094498
     12          1           0       -1.259744    0.471474    1.369315
     13          1           0       -0.531973   -1.331035   -0.097698
 ---------------------------------------------------------------------

 The electronic state is 1-A.
 Alpha  occ. eigenvalues --   -1.48881  -1.34539  -1.16844  -0.92068  -0.78125
 Alpha  occ. eigenvalues --   -0.68489  -0.65533  -0.58477  -0.57881  -0.55567
 Alpha  occ. eigenvalues --   -0.52604  -0.49210  -0.48122  -0.44214  -0.41025
 Alpha  occ. eigenvalues --   -0.39106
 Alpha virt. eigenvalues --    0.10421   0.11939   0.12315   0.13418   0.13818
 Alpha virt. eigenvalues --    0.14679   0.15287   0.16861   0.17288   0.17843
 Alpha virt. eigenvalues --    0.19394   0.22890

 Mulliken charges:
               1
     1  C    0.073934
     2  O   -0.319611
     3  C   -0.159894
     4  C    0.080797
     5  O   -0.340766
     6  H    0.028101
     7  H    0.025371
     8  H    0.193892
     9  H    0.073825
    10  H    0.061657
    11  H    0.046691
    12  H    0.019893
    13  H    0.216110
 Sum of Mulliken charges =   0.00000

 Dipole moment (field-independent basis, Debye):
    X=              2.5505    Y=              1.3921    Z=              1.2115  Tot=              3.1481
 N-N= 1.386482197932D+02 E-N=-2.320199800057D+02  KE=-2.258898200237D+01
 1\1\GINC-GTX1080DELTA\FOpt\RPM3\ZDO\C3H8O2\MVEROT\17-Apr-2022\0\\#n PM
 3 Opt\\Optimisation de geometrie\\0,1\C,1.0149581292,2.0617829106,1.22
 700873\O,1.6475573595,3.178286014,0.632424247\C,1.9766134228,0.8786939
 489,1.1332981995\C,3.2809031906,1.1468958679,1.886766098\O,4.049619524
 2,2.1757240431,1.3237239973\H,0.0693961116,1.8454431715,0.6937107159\H
 ,0.759488995,2.2816194569,2.2825500562\H,1.1228935837,3.9377218226,0.8
 457429416\H,2.1917936889,0.6434195435,0.0718778938\H,1.48355233,-0.018
 6596435,1.552165049\H,3.9496246873,0.2693317716,1.8637829311\H,3.07568
 63777,1.3849827346,2.9495707415\H,3.4341125996,2.8541583581,1.04067839

 Normal termination of Gaussian 09 at Sun Apr 17 23:23:10 2022.
