 Gaussian 09, Revision D.01,
 Gaussian 09:  AM64L-G09RevD.01 24-Apr-2013

 ---------------
 # hf/6-31G* opt
 ---------------

 -------------------------
 Optimisation de geometrie
 -------------------------
 Symbolic Z-matrix:
 Charge =  0 Multiplicity = 1

 SCF Done:  E(RHF) =  -267.958198111     A.U. after   12 cycles
 SCF Done:  E(RHF) =  -267.960797541     A.U. after   11 cycles
 SCF Done:  E(RHF) =  -267.960637309     A.U. after   11 cycles
 SCF Done:  E(RHF) =  -267.961090715     A.U. after   10 cycles
 SCF Done:  E(RHF) =  -267.961123257     A.U. after    9 cycles
 SCF Done:  E(RHF) =  -267.961134101     A.U. after    9 cycles
 SCF Done:  E(RHF) =  -267.961136793     A.U. after    9 cycles
 SCF Done:  E(RHF) =  -267.961137231     A.U. after    8 cycles
 Optimization completed.
    -- Stationary point found.

                         Standard orientation:
 ---------------------------------------------------------------------
 Center     Atomic      Atomic             Coordinates (Angstroms)
 Number     Number       Type             X           Y           Z
 ---------------------------------------------------------------------
      1          6           0        1.295886    0.460067    0.160308
      2          8           0        1.309303   -0.932105   -0.068978
      3          6           0       -0.022196    1.028198   -0.341763
      4          6           0       -1.252144    0.398867    0.312178
      5          8           0       -1.519137   -0.893225   -0.147971
      6          1           0        2.127460    0.933783   -0.355256
      7          1           0        1.404206    0.663400    1.224108
      8          1           0        2.108727   -1.310160    0.269309
      9          1           0       -0.090244    0.892356   -1.416682
     10          1           0       -0.018815    2.098401   -0.146465
     11          1           0       -2.128444    0.991071    0.079487
     12          1           0       -1.135906    0.409761    1.396799
     13          1           0       -0.717588   -1.398765   -0.100050
 ---------------------------------------------------------------------

 The electronic state is 1-A.
 Alpha  occ. eigenvalues --  -20.57558 -20.53174 -11.28361 -11.26183 -11.22090
 Alpha  occ. eigenvalues --   -1.38142  -1.34246  -1.04740  -0.91413  -0.81245
 Alpha  occ. eigenvalues --   -0.72584  -0.69004  -0.63004  -0.60470  -0.60023
 Alpha  occ. eigenvalues --   -0.56106  -0.52510  -0.51261  -0.46510  -0.44524
 Alpha  occ. eigenvalues --   -0.41806
 Alpha virt. eigenvalues --    0.20908   0.25620   0.28946   0.29422   0.31286
 Alpha virt. eigenvalues --    0.32227   0.32695   0.35137   0.38826   0.40071
 Alpha virt. eigenvalues --    0.45542   0.45890   0.73365   0.73721   0.79435

 Mulliken charges:
               1
     1  C   -0.001362
     2  O   -0.759042
     3  C   -0.365123
     4  C    0.026613
     5  O   -0.762774
     6  H    0.153678
     7  H    0.144617
     8  H    0.448736
     9  H    0.187690
    10  H    0.159381
    11  H    0.165055
    12  H    0.128605
    13  H    0.473928
 Sum of Mulliken charges =  -0.00000

 Dipole moment (field-independent basis, Debye):
    X=              3.2734    Y=              1.4415    Z=              1.2424  Tot=              3.7864
 Quadrupole moment (field-independent basis, Debye-Ang):
   XX=            -30.6501   YY=            -30.1090   ZZ=            -31.8255
   XY=             -4.4685   XZ=              0.8225   YZ=             -1.1891

 Normal termination of Gaussian 09 at Sun Apr 17 23:25:20 2022.
