 Gaussian 09, Revision D.01,
 Gaussian 09:  AM64L-G09RevD.01 24-Apr-2013

 ---------------
 # hf/6-31G* Opt
 ---------------

 -------------------------
 Optimisation de geometrie
 -------------------------
 Symbolic Z-matrix:
 Charge =  1 Multiplicity = 2

 SCF Done:  E(UHF) =  -155.749744462     A.U. after   13 cycles
 SCF Done:  E(UHF) =  -155.759977611     A.U. after   12 cycles
 SCF Done:  E(UHF) =  -155.760179012     A.U. after   11 cycles
 SCF Done:  E(UHF) =  -155.760190396     A.U. after   10 cycles
 Optimization completed.
    -- Stationary point found.

                         Standard orientation:
 ---------------------------------------------------------------------
 Center     Atomic      Atomic             Coordinates (Angstroms)
 Number     Number       Type             X           Y           Z
 ---------------------------------------------------------------------
      1          6           0        1.221697    0.000007   -0.000000
      2          6           0       -0.000013    0.979830    0.000000
      3          6           0       -1.221698   -0.000007   -0.000000
      4          6           0        0.000014   -0.979830    0.000000
      5          1           0        1.816686    0.000018    0.895490
      6          1           0        1.816685    0.000018   -0.895491
      7          1           0       -0.000012    1.527648   -0.932892
      8          1           0       -0.000012    1.527647    0.932893
      9          1           0       -1.816685   -0.000018   -0.895491
     10          1           0       -1.816686   -0.000018    0.895490
     11          1           0        0.000010   -1.527648   -0.932892
     12          1           0        0.000010   -1.527646    0.932893
 ---------------------------------------------------------------------

 The electronic state is 2-A.
 Alpha  occ. eigenvalues --  -11.49880 -11.49875 -11.48430 -11.48426  -1.41037
 Alpha  occ. eigenvalues --   -1.18061  -1.15131  -0.99483  -0.93436  -0.88760
 Alpha  occ. eigenvalues --   -0.81728  -0.80370  -0.76363  -0.74835  -0.71468
 Alpha  occ. eigenvalues --   -0.62482
 Alpha virt. eigenvalues --    0.00563   0.02796   0.02920   0.08542   0.11287
 Alpha virt. eigenvalues --    0.12820   0.14302   0.14678   0.14857   0.18771
 Alpha virt. eigenvalues --    0.21989   0.26595   0.46954   0.47849   0.47919

  Beta  occ. eigenvalues --  -11.49473 -11.49459 -11.47588 -11.47583  -1.36852
  Beta  occ. eigenvalues --   -1.14620  -1.11099  -0.97048  -0.92584  -0.82081
  Beta  occ. eigenvalues --   -0.80215  -0.79878  -0.73792  -0.70497  -0.68669
  Beta virt. eigenvalues --   -0.24412   0.01311   0.03755   0.05834   0.08497
  Beta virt. eigenvalues --    0.12802   0.13652   0.14589   0.15485   0.15655
  Beta virt. eigenvalues --    0.21886   0.22268   0.27835   0.47875   0.48530

 Mulliken charges and spin densities:
               1          2
     1  C   -0.307659   0.344806
     2  C   -0.397200   0.095898
     3  C   -0.307658   0.344813
     4  C   -0.397200   0.095898
     5  H    0.284235  -0.024790
     6  H    0.284235  -0.024790
     7  H    0.318195   0.054436
     8  H    0.318195   0.054436
     9  H    0.284235  -0.024790
    10  H    0.284235  -0.024790
    11  H    0.318195   0.054436
    12  H    0.318195   0.054436
 Sum of Mulliken charges =   1.00000   1.00000

 Dipole moment (field-independent basis, Debye):
    X=             -0.0000    Y=             -0.0000    Z=             -0.0000  Tot=              0.0000
 Quadrupole moment (field-independent basis, Debye-Ang):
   XX=            -18.3719   YY=            -19.4532   ZZ=            -20.1401
   XY=              0.0000   XZ=              0.0000   YZ=              0.0000

 Normal termination of Gaussian 09 at Sat Apr 16 16:26:37 2022.
