 Gaussian 09, Revision D.01,
 Gaussian 09:  AM64L-G09RevD.01 24-Apr-2013

 ----------
 #n AM1 Opt
 ----------

 -------------------------
 Optimisation de geometrie
 -------------------------
 Symbolic Z-matrix:
 Charge =  0 Multiplicity = 1

 SCF Done:  E(RAM1) = -0.173743152039     A.U. after   13 cycles
 SCF Done:  E(RAM1) = -0.175775333594     A.U. after   11 cycles
 SCF Done:  E(RAM1) = -0.176064874634     A.U. after   10 cycles
 SCF Done:  E(RAM1) = -0.176115074431     A.U. after   10 cycles
 SCF Done:  E(RAM1) = -0.176137841880     A.U. after   10 cycles
 SCF Done:  E(RAM1) = -0.176156015047     A.U. after   11 cycles
 SCF Done:  E(RAM1) = -0.176162567027     A.U. after   10 cycles
 SCF Done:  E(RAM1) = -0.176167615103     A.U. after   10 cycles
 SCF Done:  E(RAM1) = -0.176169274204     A.U. after    9 cycles
 SCF Done:  E(RAM1) = -0.176169878707     A.U. after    9 cycles
 SCF Done:  E(RAM1) = -0.176170071785     A.U. after    9 cycles
 SCF Done:  E(RAM1) = -0.176170184795     A.U. after    9 cycles
 SCF Done:  E(RAM1) = -0.176170215500     A.U. after    9 cycles
 Optimization completed.
    -- Stationary point found.

                         Standard orientation:
 ---------------------------------------------------------------------
 Center     Atomic      Atomic             Coordinates (Angstroms)
 Number     Number       Type             X           Y           Z
 ---------------------------------------------------------------------
      1          6           0        0.691754    0.585974   -0.274385
      2          8           0        1.337532   -0.581686    0.209425
      3          6           0       -0.726262    0.559587    0.289585
      4          8           0       -1.458179   -0.542790   -0.202752
      5          1           0        0.666340    0.575403   -1.396155
      6          1           0        1.234478    1.501192    0.080293
      7          1           0        2.207131   -0.612582   -0.204594
      8          1           0       -1.292358    1.465303   -0.053536
      9          1           0       -0.690473    0.529446    1.411018
     10          1           0       -0.952896   -1.336317    0.018386
 ---------------------------------------------------------------------

 The electronic state is 1-A.
 Alpha  occ. eigenvalues --   -1.43919  -1.35570  -1.09856  -0.85819  -0.69956
 Alpha  occ. eigenvalues --   -0.65041  -0.60387  -0.57829  -0.53331  -0.50028
 Alpha  occ. eigenvalues --   -0.45641  -0.41472  -0.40408
 Alpha virt. eigenvalues --    0.11896   0.13218   0.14011   0.14193   0.15093
 Alpha virt. eigenvalues --    0.16607   0.17254   0.21869   0.23614

 Mulliken charges:
               1
     1  C   -0.063886
     2  O   -0.338950
     3  C   -0.018026
     4  O   -0.327433
     5  H    0.076106
     6  H    0.070204
     7  H    0.205497
     8  H    0.106397
     9  H    0.076854
    10  H    0.213239
 Sum of Mulliken charges =   0.00000

 Dipole moment (field-independent basis, Debye):
    X=              1.9217    Y=              1.1549    Z=             -0.2880  Tot=              2.2604
 N-N= 1.034160161924D+02 E-N=-1.711958145639D+02  KE=-1.680344149316D+01
 1\1\GINC-GTX1080DELTA\FOpt\RAM1\ZDO\C2H6O2\MVEROT\17-Apr-2022\0\\#n AM
 1 Opt\\Optimisation de geometrie\\0,1\C,1.0622533616,2.1759231887,1.62
 4103213\O,1.6500678892,2.1028648539,2.9139359596\C,1.3407984647,0.8368
 246254,0.9467883722\O,2.7242961656,0.6338929548,0.751632511\H,1.523481
 3215,3.0139142659,1.0374471454\H,-0.0430406244,2.344122338,1.713578507
 \H,1.5464148194,2.9713232675,3.3184179212\H,0.8941552786,0.8273069419,
 -0.0822590871\H,0.910971103,0.0016444412,1.5612166793\H,3.1439022208,0
 .7087831226,1.6189387784\\Version=AM64L-G09RevD.01\State=1-A\HF=-0.176
 1702\RMSD=2.810e-09\RMSF=9.476e-06\Dipole=-0.5986812,0.6151985,0.23238

 Normal termination of Gaussian 09 at Sun Apr 17 23:10:55 2022.
