 Gaussian 09, Revision D.01,
 Gaussian 09:  AM64L-G09RevD.01 24-Apr-2013

 ---------------
 # hf/6-31G* opt
 ---------------

 -------------------------
 Optimisation de geometrie
 -------------------------
 Symbolic Z-matrix:
 Charge =  0 Multiplicity = 1

 SCF Done:  E(RHF) =  -267.954139675     A.U. after   11 cycles
 SCF Done:  E(RHF) =  -267.957315049     A.U. after   11 cycles
 SCF Done:  E(RHF) =  -267.957494821     A.U. after   10 cycles
 SCF Done:  E(RHF) =  -267.957521539     A.U. after    9 cycles
 SCF Done:  E(RHF) =  -267.957529524     A.U. after    9 cycles
 SCF Done:  E(RHF) =  -267.957533782     A.U. after    9 cycles
 SCF Done:  E(RHF) =  -267.957535298     A.U. after    8 cycles
 SCF Done:  E(RHF) =  -267.957535470     A.U. after    8 cycles
 SCF Done:  E(RHF) =  -267.957535493     A.U. after    7 cycles
 Optimization completed.
    -- Stationary point found.

                         Standard orientation:
 ---------------------------------------------------------------------
 Center     Atomic      Atomic             Coordinates (Angstroms)
 Number     Number       Type             X           Y           Z
 ---------------------------------------------------------------------
      1          6           0        0.986143   -0.374941    0.269807
      2          8           0        2.283012   -0.030431   -0.149212
      3          6           0        0.041156    0.708955   -0.220212
      4          6           0       -1.388593    0.511367    0.249719
      5          8           0       -1.860957   -0.715359   -0.248929
      6          1           0        0.941763   -0.443403    1.356545
      7          1           0        0.689771   -1.336736   -0.134872
      8          1           0        2.882348   -0.729220    0.070374
      9          1           0        0.064885    0.733567   -1.304549
     10          1           0        0.400547    1.670929    0.134138
     11          1           0       -2.005818    1.332703   -0.107427
     12          1           0       -1.429502    0.520387    1.338349
     13          1           0       -2.752670   -0.854196    0.036685
 ---------------------------------------------------------------------

 The electronic state is 1-A.
 Alpha  occ. eigenvalues --  -20.55812 -20.54894 -11.27331 -11.26243 -11.21212
 Alpha  occ. eigenvalues --   -1.36517  -1.35505  -1.04364  -0.90805  -0.80090
 Alpha  occ. eigenvalues --   -0.71366  -0.68839  -0.65041  -0.62368  -0.56449
 Alpha  occ. eigenvalues --   -0.55228  -0.51579  -0.49143  -0.47262  -0.43744
 Alpha  occ. eigenvalues --   -0.42986
 Alpha virt. eigenvalues --    0.22120   0.23469   0.26832   0.29821   0.31211
 Alpha virt. eigenvalues --    0.32363   0.34149   0.36982   0.39403   0.41518
 Alpha virt. eigenvalues --    0.43542   0.46543   0.74035   0.76183   0.79152

 Mulliken charges:
               1
     1  C    0.013891
     2  O   -0.746272
     3  C   -0.333361
     4  C   -0.010628
     5  O   -0.740436
     6  H    0.129012
     7  H    0.166591
     8  H    0.437871
     9  H    0.185048
    10  H    0.171997
    11  H    0.148457
    12  H    0.137382
    13  H    0.440447
 Sum of Mulliken charges =  -0.00000

 Dipole moment (field-independent basis, Debye):
    X=             -1.4276    Y=             -0.4704    Z=              1.6819  Tot=              2.2557
 Quadrupole moment (field-independent basis, Debye-Ang):
   XX=            -25.5132   YY=            -30.7694   ZZ=            -32.1614
   XY=             -4.7876   XZ=             -0.1665   YZ=             -0.8304

 Normal termination of Gaussian 09 at Sun Apr 17 23:37:56 2022.
