 Gaussian 09, Revision D.01,
 Gaussian 09:  AM64L-G09RevD.01 24-Apr-2013

 ----------
 #n AM1 Opt
 ----------

 ---------------------
 Geometry optimization
 ---------------------
 Symbolic Z-matrix:
 Charge =  0 Multiplicity = 1

 SCF Done:  E(RAM1) = -0.127026399639     A.U. after   16 cycles
 SCF Done:  E(RAM1) = -0.134375985207     A.U. after   15 cycles
 SCF Done:  E(RAM1) = -0.135295033432     A.U. after   13 cycles
 SCF Done:  E(RAM1) = -0.135344295066     A.U. after   13 cycles
 SCF Done:  E(RAM1) = -0.135353745152     A.U. after   12 cycles
 SCF Done:  E(RAM1) = -0.135354089805     A.U. after   12 cycles
 SCF Done:  E(RAM1) = -0.135357536415     A.U. after   11 cycles
 SCF Done:  E(RAM1) = -0.135358256233     A.U. after   12 cycles
 SCF Done:  E(RAM1) = -0.135359104083     A.U. after   11 cycles
 SCF Done:  E(RAM1) = -0.135359437921     A.U. after   11 cycles
 SCF Done:  E(RAM1) = -0.135359768288     A.U. after   15 cycles
 SCF Done:  E(RAM1) = -0.134944490830     A.U. after   15 cycles
 SCF Done:  E(RAM1) = -0.135581786727     A.U. after   11 cycles
 SCF Done:  E(RAM1) = -0.135669106571     A.U. after   14 cycles
 SCF Done:  E(RAM1) = -0.135704371854     A.U. after   13 cycles
 SCF Done:  E(RAM1) = -0.135721504759     A.U. after   13 cycles
 SCF Done:  E(RAM1) = -0.135729170799     A.U. after   13 cycles
 SCF Done:  E(RAM1) = -0.135736695243     A.U. after   13 cycles
 SCF Done:  E(RAM1) = -0.135738108560     A.U. after   12 cycles
 SCF Done:  E(RAM1) = -0.135738260762     A.U. after   10 cycles
 Optimization completed.
    -- Stationary point found.

                         Standard orientation:
 ---------------------------------------------------------------------
 Center     Atomic      Atomic             Coordinates (Angstroms)
 Number     Number       Type             X           Y           Z
 ---------------------------------------------------------------------
      1          6           0       -0.332157   -1.454119    0.316027
      2          6           0       -1.581553   -0.701721    0.066066
      3          6           0        0.924660   -0.703436    0.098064
      4          8           0       -0.347654   -2.635240    0.678873
      5          6           0       -0.332234    1.454055    0.316220
      6          6           0        0.924620    0.703457    0.098004
      7          8           0       -0.347637    2.635229    0.678911
      8          6           0       -1.581653    0.701619    0.066546
      9          6           0       -2.774139   -1.396764   -0.158243
     10          6           0        2.133949    1.391728   -0.111514
     11          6           0       -2.774417    1.396636   -0.156911
     12          6           0        2.134100   -1.391628   -0.111149
     13          6           0       -3.958144   -0.696992   -0.393821
     14          6           0       -3.958308    0.696853   -0.393035
     15          6           0        3.338801   -0.691648   -0.311589
     16          6           0        3.338728    0.691828   -0.311804
     17          1           0       -2.765448   -2.498876   -0.140943
     18          1           0       -2.765929    2.498735   -0.138587
     19          1           0       -4.892341   -1.249449   -0.575715
     20          1           0       -4.892684    1.249293   -0.574056
     21          1           0        4.275268    1.248005   -0.467468
     22          1           0        4.275414   -1.247775   -0.467012
     23          8           0        2.083731   -2.763408   -0.131221
     24          1           0        2.988941   -3.094652   -0.234099
     25          8           0        2.083382    2.763499   -0.132241
     26          1           0        2.988682    3.094870   -0.233858
 ---------------------------------------------------------------------

 The electronic state is 1-A.
 Alpha  occ. eigenvalues --   -1.54134  -1.47950  -1.46108  -1.41975  -1.40254
 Alpha  occ. eigenvalues --   -1.34858  -1.24858  -1.17313  -1.15888  -1.10616
 Alpha  occ. eigenvalues --   -0.98798  -0.94072  -0.90201  -0.84259  -0.80533
 Alpha  occ. eigenvalues --   -0.77251  -0.72256  -0.68658  -0.66692  -0.65920
 Alpha  occ. eigenvalues --   -0.61797  -0.60334  -0.60087  -0.59933  -0.57943
 Alpha  occ. eigenvalues --   -0.57867  -0.55925  -0.55244  -0.54750  -0.54546
 Alpha  occ. eigenvalues --   -0.52745  -0.52571  -0.50682  -0.48893  -0.48860
 Alpha  occ. eigenvalues --   -0.48153  -0.45607  -0.44833  -0.40531  -0.38996
 Alpha  occ. eigenvalues --   -0.38563  -0.37005  -0.36808  -0.33442
 Alpha virt. eigenvalues --   -0.04565  -0.00979  -0.00713   0.00397   0.04845
 Alpha virt. eigenvalues --    0.05551   0.08346   0.08845   0.09345   0.09970
 Alpha virt. eigenvalues --    0.10139   0.10762   0.11422   0.12399   0.13215

 Mulliken charges:
               1
     1  C    0.307635
     2  C   -0.108671
     3  C   -0.107208
     4  O   -0.253287
     5  C    0.307635
     6  C   -0.107186
     7  O   -0.253308
     8  C   -0.108683
     9  C   -0.087615
    10  C    0.088474
    11  C   -0.087600
    12  C    0.088479
    13  C   -0.118772
    14  C   -0.118787
    15  C   -0.163537
    16  C   -0.163513
    17  H    0.157664
    18  H    0.157676
    19  H    0.140059
    20  H    0.140060
    21  H    0.143644
    22  H    0.143642
    23  O   -0.216330
    24  H    0.217936
    25  O   -0.216348
    26  H    0.217942
 Sum of Mulliken charges =  -0.00000

 Dipole moment (field-independent basis, Debye):
    X=              2.4877    Y=             -0.0000    Z=             -2.0977  Tot=              3.2541
 N-N= 6.758223883859D+02 E-N=-1.222892782842D+03  KE=-6.244929545347D+01
 1\1\GINC-GTX1080DELTA\FOpt\RAM1\ZDO\C14H8O4\MVEROT\11-Apr-2022\0\\#n A
 M1 Opt\\Geometry optimization\\0,1\C,0.0273753787,1.4946593503,0.35670
 88407\C,1.2711573319,0.7209576414,0.1470305337\C,-1.235066398,0.746147
 3874,0.1654161441\O,0.0517269232,2.6905145216,0.6669988345\C,0.0011863
 66,-1.4105386161,0.4856215565\C,-1.2477324013,-0.6593124828,0.22762791
 89\O,0.0041093714,-2.5745717911,0.9003153883\C,1.2585805403,-0.6809296
 514,0.2096248721\C,2.4710776978,1.3948548673,-0.1013922278\C,-2.462166
 6457,-1.3455206163,0.0422652156\C,2.4461198621,-1.3956368764,0.0235795
 857\C,-2.4371812175,1.4350116457,-0.0805660086\C,3.6498762251,0.674938

 Normal termination of Gaussian 09 at Mon Apr 11 23:40:49 2022.
