 Gaussian 09, Revision D.01,
 Gaussian 09:  AM64L-G09RevD.01 24-Apr-2013

 ----------
 #n AM1 Opt
 ----------

 ---------------------
 Geometry optimization
 ---------------------
 Symbolic Z-matrix:
 Charge =  0 Multiplicity = 1

 SCF Done:  E(RAM1) = -0.185455126609E-02 A.U. after   15 cycles
 SCF Done:  E(RAM1) = -0.460854327844E-02 A.U. after   14 cycles
 SCF Done:  E(RAM1) = -0.150396724758E-01 A.U. after   14 cycles
 SCF Done:  E(RAM1) = -0.155073267490E-01 A.U. after   13 cycles
 SCF Done:  E(RAM1) = -0.155799952810E-01 A.U. after   12 cycles
 SCF Done:  E(RAM1) = -0.155835354585E-01 A.U. after   10 cycles
 Optimization completed.
    -- Stationary point found.

                         Standard orientation:
 ---------------------------------------------------------------------
 Center     Atomic      Atomic             Coordinates (Angstroms)
 Number     Number       Type             X           Y           Z
 ---------------------------------------------------------------------
      1          6           0        0.000001   -1.113999    0.000011
      2          6           0       -1.275275   -0.370358    0.000009
      3          6           0        1.275275   -0.370356    0.000008
      4          8           0        0.000005   -2.364686   -0.000032
      5          6           0        0.000000    1.799998    0.000012
      6          6           0        1.267373    1.039425    0.000010
      7          8           0        0.000000    3.040883   -0.000044
      8          6           0       -1.267372    1.039425    0.000008
      9          6           0       -2.543083   -1.033694    0.000006
     10          6           0        2.441676    1.784658    0.000011
     11          6           0       -2.441674    1.784659    0.000004
     12          6           0        2.543082   -1.033694    0.000002
     13          6           0       -3.736173   -0.239621    0.000004
     14          6           0       -3.680182    1.135112    0.000003
     15          6           0        3.736173   -0.239623    0.000005
     16          6           0        3.680184    1.135110    0.000010
     17          1           0       -2.388912    2.885231    0.000003
     18          1           0       -4.717165   -0.740595    0.000003
     19          1           0       -4.608020    1.728079    0.000002
     20          1           0        4.608022    1.728076    0.000012
     21          1           0        4.717164   -0.740599    0.000003
     22          7           0       -2.696931   -2.392914    0.000006
     23          1           0        2.388916    2.885231    0.000013
     24          7           0        2.696924   -2.392915   -0.000008
     25          1           0       -1.915639   -3.002320    0.000003
     26          1           0       -3.607256   -2.775907   -0.000002
     27          1           0        3.607246   -2.775912   -0.000007
     28          1           0        1.915628   -3.002316   -0.000009
 ---------------------------------------------------------------------

 The electronic state is 1-A.
 Alpha  occ. eigenvalues --   -1.52294  -1.45577  -1.44161  -1.38714  -1.31087
 Alpha  occ. eigenvalues --   -1.30667  -1.23232  -1.14803  -1.09610  -1.08127
 Alpha  occ. eigenvalues --   -0.97239  -0.92024  -0.88959  -0.82294  -0.79065
 Alpha  occ. eigenvalues --   -0.75270  -0.69410  -0.66699  -0.65126  -0.64348
 Alpha  occ. eigenvalues --   -0.63678  -0.61116  -0.58104  -0.58073  -0.57436
 Alpha  occ. eigenvalues --   -0.57130  -0.55973  -0.53493  -0.53239  -0.52385
 Alpha  occ. eigenvalues --   -0.52146  -0.49410  -0.48569  -0.47634  -0.46491
 Alpha  occ. eigenvalues --   -0.46228  -0.43599  -0.43229  -0.40214  -0.38384
 Alpha  occ. eigenvalues --   -0.37189  -0.36701  -0.31801  -0.30940
 Alpha virt. eigenvalues --   -0.04045   0.00333   0.00536   0.01818   0.05987
 Alpha virt. eigenvalues --    0.06357   0.09132   0.09494   0.09615   0.10661
 Alpha virt. eigenvalues --    0.11140   0.11612   0.13059   0.13623   0.14005

 Mulliken charges:
               1
     1  C    0.345033
     2  C   -0.205066
     3  C   -0.205067
     4  O   -0.385719
     5  C    0.297171
     6  C   -0.056871
     7  O   -0.289098
     8  C   -0.056871
     9  C    0.180341
    10  C   -0.152816
    11  C   -0.152816
    12  C    0.180341
    13  C   -0.216992
    14  C   -0.064053
    15  C   -0.216992
    16  C   -0.064053
    17  H    0.160234
    18  H    0.133873
    19  H    0.137764
    20  H    0.137764
    21  H    0.133873
    22  N   -0.381880
    23  H    0.160234
    24  N   -0.381880
    25  H    0.259920
    26  H    0.221853
    27  H    0.221852
    28  H    0.259921
 Sum of Mulliken charges =  -0.00000

 Dipole moment (field-independent basis, Debye):
    X=             -0.0000    Y=             -3.2773    Z=              0.0002  Tot=              3.2773
 N-N= 6.662386741401D+02 E-N=-1.205467057852D+03  KE=-6.220412202410D+01
 1\1\GINC-GTX1080DELTA\FOpt\RAM1\ZDO\C14H10N2O2\MVEROT\12-Apr-2022\0\\#
 n AM1 Opt\\Geometry optimization\\0,1\C,-0.0056187287,1.4924377656,0.0
 003361418\C,1.2699683359,0.7493306585,0.0001970094\C,-1.2805813712,0.7
 482617062,0.000144905\O,-0.006145745,2.7431248916,0.000565857\C,-0.004
 3981017,-1.421558641,-0.0002998498\C,-1.2720891854,-0.6615165116,-0.00
 01608746\O,-0.0038782836,-2.6624431352,-0.0006266833\C,1.2626558966,-0
 .6604546547,-0.0001124866\C,2.5374987333,1.4131973097,0.0003638659\C,-
 2.4460795732,-1.4072411193,-0.0003459705\C,2.4372694284,-1.405197226,-
 0.0002552136\C,-2.5486652901,1.4110683761,0.0002587186\C,3.7309215458,

 Normal termination of Gaussian 09 at Tue Apr 12 01:07:11 2022.
