 Gaussian 09, Revision D.01,
 Gaussian 09:  AM64L-G09RevD.01 24-Apr-2013

 -----------------------
 #n PM6 Opt=modredundant
 -----------------------

 -------------------------
 Optimisation de geometrie
 -------------------------
 Symbolic Z-matrix:
 Charge =  0 Multiplicity = 1

 SCF Done:  E(RPM6) = -0.158412916133     A.U. after   14 cycles
 SCF Done:  E(RPM6) = -0.160872495017     A.U. after   11 cycles
 SCF Done:  E(RPM6) = -0.161397357182     A.U. after   11 cycles
 SCF Done:  E(RPM6) = -0.161532284172     A.U. after   11 cycles
 SCF Done:  E(RPM6) = -0.161590903782     A.U. after   11 cycles
 SCF Done:  E(RPM6) = -0.161602878510     A.U. after   10 cycles
 SCF Done:  E(RPM6) = -0.161609884318     A.U. after   10 cycles
 SCF Done:  E(RPM6) = -0.161614619447     A.U. after   10 cycles
 SCF Done:  E(RPM6) = -0.161619017182     A.U. after   10 cycles
 SCF Done:  E(RPM6) = -0.161625504306     A.U. after   10 cycles
 Optimization completed.
    -- Stationary point found.
 Optimization completed.
 SCF Done:  E(RPM6) = -0.160567785933     A.U. after   10 cycles
 SCF Done:  E(RPM6) = -0.160567973423     A.U. after    9 cycles
 SCF Done:  E(RPM6) = -0.160567979019     A.U. after    8 cycles
    -- Stationary point found.
 SCF Done:  E(RPM6) = -0.159663289925     A.U. after   11 cycles
 SCF Done:  E(RPM6) = -0.161229959080     A.U. after   11 cycles
 SCF Done:  E(RPM6) = -0.161285508176     A.U. after   11 cycles
 SCF Done:  E(RPM6) = -0.161289930571     A.U. after   11 cycles
 SCF Done:  E(RPM6) = -0.161292820894     A.U. after   11 cycles
 SCF Done:  E(RPM6) = -0.161293166325     A.U. after   10 cycles
 SCF Done:  E(RPM6) = -0.161293208677     A.U. after    9 cycles
 Optimization completed on the basis of negligible forces.
    -- Stationary point found.

                         Standard orientation:
 ---------------------------------------------------------------------
 Center     Atomic      Atomic             Coordinates (Angstroms)
 Number     Number       Type             X           Y           Z
 ---------------------------------------------------------------------
      1          6           0        1.410168    0.545117    0.228160
      2          8           0        1.970139   -0.687541   -0.240664
      3          6           0       -0.045162    0.733243   -0.201088
      4          6           0       -0.964445   -0.372929    0.320968
      5          8           0       -2.291771   -0.214646   -0.194507
      6          1           0        2.073743    1.299865   -0.238369
      7          1           0        1.523446    0.584192    1.327504
      8          1           0        1.437815   -1.450616    0.053623
      9          1           0       -0.106348    0.748868   -1.311919
     10          1           0       -0.405383    1.726332    0.127024
     11          1           0       -1.006126   -0.397419    1.424435
     12          1           0       -0.678031   -1.370688   -0.066153
     13          1           0       -2.669429    0.644377    0.076978
 ---------------------------------------------------------------------

 The electronic state is 1-A.
 Alpha  occ. eigenvalues --   -1.12087  -1.09661  -0.99642  -0.89592  -0.79027
 Alpha  occ. eigenvalues --   -0.67632  -0.64837  -0.60765  -0.57609  -0.53778
 Alpha  occ. eigenvalues --   -0.52005  -0.49878  -0.45314  -0.44416  -0.39637
 Alpha  occ. eigenvalues --   -0.39276
 Alpha virt. eigenvalues --    0.08481   0.09253   0.12587   0.13525   0.17170
 Alpha virt. eigenvalues --    0.18071   0.18963   0.19039   0.19580   0.20684
 Alpha virt. eigenvalues --    0.21400   0.21912

 Mulliken charges:
               1
     1  C    0.026714
     2  O   -0.545294
     3  C   -0.417376
     4  C    0.024328
     5  O   -0.542471
     6  H    0.145672
     7  H    0.110731
     8  H    0.305267
     9  H    0.180750
    10  H    0.155475
    11  H    0.110072
    12  H    0.140859
    13  H    0.305274
 Sum of Mulliken charges =  -0.00000

 Dipole moment (field-independent basis, Debye):
    X=             -0.4388    Y=              1.7479    Z=              2.0250  Tot=              2.7108
 N-N= 1.340364786924D+02 E-N=-2.292157340360D+02  KE=-1.787666895375D+01
 1\1\GINC-GTX1080DELTA\Scan\RPM6\ZDO\C3H8O2\MVEROT\18-Apr-2022\0\\#n PM
 6 Opt=modredundant\\Optimisation de geometrie\\0,1\C,1.1020751401,2.51
 60315171,0.7122351899\O,0.08219872,2.1825655977,1.6616890318\C,2.51273
 75546,2.3046855993,1.262686152\C,2.7771640018,0.8547042217,1.673630012
 1\O,4.0680936596,0.7273055795,2.2817679512\H,0.898749884,3.5865733876,
 0.5116764069\H,0.9272352157,1.9290134945,-0.2085027053\H,0.1799825617,
 1.2637284471,1.9754299713\H,2.667422845,2.9575241906,2.1502713329\H,3.
 2580654533,2.6405043158,0.5174657191\H,2.7101259214,0.1579287085,0.819
 2375564\H,2.1000117429,0.5207932652,2.484423451\H,4.7723372997,0.99804

 Normal termination of Gaussian 09 at Mon Apr 18 00:27:38 2022.
