 Gaussian 09, Revision D.01,
 Gaussian 09:  AM64L-G09RevD.01 24-Apr-2013

 ----------------
 # hf/6-31G* freq
 ----------------

 -------------------------
 Optimisation de geometrie
 -------------------------
 Symbolic Z-matrix:
 Charge =  1 Multiplicity = 2

                         Standard orientation:
 ---------------------------------------------------------------------
 Center     Atomic      Atomic             Coordinates (Angstroms)
 Number     Number       Type             X           Y           Z
 ---------------------------------------------------------------------
      1          6           0       -0.501009   -0.953731   -0.134266
      2          6           0       -0.953068    0.493890    0.162408
      3          6           0        0.494250    0.959954   -0.113337
      4          6           0        0.959827   -0.500113    0.085195
      5          1           0       -0.684769   -1.227060   -1.168034
      6          1           0       -0.884973   -1.742155    0.503084
      7          1           0       -1.224042    0.623413    1.204977
      8          1           0       -1.742572    0.911213   -0.452232
      9          1           0        0.913480    1.715915    0.540899
     10          1           0        0.621736    1.285086   -1.140562
     11          1           0        1.287068   -0.681439    1.103620
     12          1           0        1.714073   -0.884972   -0.591750
 ---------------------------------------------------------------------

 SCF Done:  E(UHF) =  -155.669682080     A.U. after   16 cycles

 The electronic state is 2-A.
 Alpha  occ. eigenvalues --  -11.46628 -11.46573 -11.46573 -11.46516  -1.37929
 Alpha  occ. eigenvalues --   -1.15194  -1.15194  -1.01648  -0.90767  -0.89212
 Alpha  occ. eigenvalues --   -0.80594  -0.80594  -0.72947  -0.72343  -0.68316
 Alpha  occ. eigenvalues --   -0.68316
 Alpha virt. eigenvalues --    0.02517   0.03145   0.07213   0.07213   0.12754
 Alpha virt. eigenvalues --    0.12754   0.13034   0.15769   0.15769   0.18771
 Alpha virt. eigenvalues --    0.20010   0.27947   0.47420   0.48405   0.52076

  Beta  occ. eigenvalues --  -11.46431 -11.46373 -11.46373 -11.46309  -1.36333
  Beta  occ. eigenvalues --   -1.12190  -1.12190  -0.95547  -0.87312  -0.85656
  Beta  occ. eigenvalues --   -0.72845  -0.70514  -0.70514  -0.67130  -0.67130
  Beta virt. eigenvalues --   -0.40486   0.02969   0.04492   0.07727   0.07727
  Beta virt. eigenvalues --    0.13808   0.13808   0.13902   0.16418   0.16418
  Beta virt. eigenvalues --    0.20199   0.20459   0.29536   0.48496   0.50607

 Mulliken charges and spin densities:
               1          2
     1  C   -0.384817   0.053637
     2  C   -0.384817   0.053637
     3  C   -0.384819   0.053645
     4  C   -0.384819   0.053645
     5  H    0.333561   0.142406
     6  H    0.301250   0.053944
     7  H    0.333562   0.142407
     8  H    0.301250   0.053944
     9  H    0.301256   0.053951
    10  H    0.333569   0.142417
    11  H    0.333568   0.142416
    12  H    0.301256   0.053951
 Sum of Mulliken charges =   1.00000   1.00000

 Dipole moment (field-independent basis, Debye):
    X=              0.0001    Y=              0.0000    Z=             -0.0000  Tot=              0.0001
 Quadrupole moment (field-independent basis, Debye-Ang):
   XX=            -18.5967   YY=            -18.5967   ZZ=            -19.2451
   XY=              0.0004   XZ=             -0.0177   YZ=              0.0163

  Exact polarizability: 212.243   0.122 212.262  -4.828   4.443  35.514
 Approx polarizability:  49.899   0.010  49.901  -0.399   0.367  35.299

 ******    4 imaginary frequencies (negative Signs) ******

                      1                      2                      3
                      A                      A                      A
 Frequencies --  -4133.1034             -3872.7662             -3872.7327
 Red. masses --      1.0933                 1.4196                 1.4196
 Frc consts  --     11.0039                12.5443                12.5441
 IR Inten    --      0.0423            139571.2868            139568.5732
 Raman Activ --2835760.4024            459236.5868            459230.1442

                      4                      5                      6
                      A                      A                      A
 Frequencies --   -365.4009               400.8228               539.5340
 Red. masses --      1.1119                 1.0505                 1.1010
 Frc consts  --      0.0875                 0.0994                 0.1888
 IR Inten    --      0.0000                13.6106                23.7894
 Raman Activ --  89905.4148            183042.1673                57.5324

                      7                      8                      9
                      A                      A                      A
 Frequencies --    539.5365               783.8817               915.0360
 Red. masses --      1.1010                 1.0323                 5.7288
 Frc consts  --      0.1888                 0.3737                 2.8261
 IR Inten    --     23.7925                 0.0000                 0.1776
 Raman Activ --     57.5270                 0.0000             41619.4044

                     10                     11                     12
                      A                      A                      A
 Frequencies --    952.3542               991.7999              1007.4010
 Red. masses --      1.5044                 3.9267                 1.3418
 Frc consts  --      0.8039                 2.2758                 0.8023
 IR Inten    --      0.0000                 0.0000               127.6085
 Raman Activ -- 216934.6302            607284.4238              1456.6044

                     13                     14                     15
                      A                      A                      A
 Frequencies --   1007.4021              1053.4017              1181.1714
 Red. masses --      1.3418                 3.4183                 1.0630
 Frc consts  --      0.8023                 2.2348                 0.8738
 IR Inten    --    127.6016                 0.0000                64.4515
 Raman Activ --   1456.5613            234946.1529           3174077.2341

                     16                     17                     18
                      A                      A                      A
 Frequencies --   1187.0285              1240.7551              1312.8504
 Red. masses --      2.0474                 1.3379                 1.8307
 Frc consts  --      1.6997                 1.2135                 1.8591
 IR Inten    --      0.0000                 0.0000                 8.7076
 Raman Activ --   4442.7239                 0.0003                31.7413

                     19                     20                     21
                      A                      A                      A
 Frequencies --   1312.8520              1446.1156              1820.2180
 Red. masses --      1.8307                 1.1859                 1.1943
 Frc consts  --      1.8591                 1.4612                 2.3313
 IR Inten    --      8.7090                 0.0000               283.7260
 Raman Activ --     31.7439               110.5167             11250.8237

                     22                     23                     24
                      A                      A                      A
 Frequencies --   1820.2206              2432.6551              2432.6593
 Red. masses --      1.1943                 1.0352                 1.0352
 Frc consts  --      2.3313                 3.6095                 3.6095
 IR Inten    --    283.7453              5273.8588              5273.8208
 Raman Activ --  11251.0468             16997.4144             16996.9534

                     25                     26                     27
                      A                      A                      A
 Frequencies --   3101.0101              3204.1516              3207.0169
 Red. masses --      1.0729                 1.0914                 1.0843
 Frc consts  --      6.0787                 6.6018                 6.5704
 IR Inten    --    306.2153                 0.0000                52.6763
 Raman Activ --2934998.9400            624178.7605           1073215.1574

                     28                     29                     30
                      A                      A                      A
 Frequencies --   3292.3233              3527.7242              3527.7261
 Red. masses --      1.0758                 1.1824                 1.1824
 Frc consts  --      6.8703                 8.6695                 8.6695
 IR Inten    --      0.0000                 0.0290                 0.0289
 Raman Activ --  66423.2830              1030.8582              1030.8175

 - Thermochemistry -
 -------------------
 Temperature   298.150 Kelvin.  Pressure   1.00000 Atm.
 Atom     1 has atomic number  6 and mass  12.00000

 Molecular mass:    56.06260 amu.
 Principal axes and moments of inertia in atomic units:
                           1         2         3
     Eigenvalues --   167.23845 167.23865 282.94406
           X            0.99820   0.05338   0.02728
           Y           -0.05270   0.99829  -0.02512
           Z           -0.02858   0.02364   0.99931
 This molecule is an asymmetric top.
 Rotational symmetry number  1.
 Rotational temperatures (Kelvin)      0.51791     0.51791     0.30612
 Rotational constants (GHZ):          10.79143    10.79141     6.37844
    4 imaginary frequencies ignored.
 Zero-point vibrational energy     264599.9 (Joules/Mol)
                                   63.24089 (Kcal/Mol)
 Warning -- explicit consideration of   3 degrees of freedom as
           vibrations may cause significant error
 Vibrational temperatures:    576.69   776.27   776.27  1127.83  1316.53
          (Kelvin)           1370.22  1426.98  1449.42  1449.43  1515.61
                             1699.44  1707.87  1785.17  1888.90  1888.90
                             2080.64  2618.88  2618.89  3500.04  3500.05
                             4461.66  4610.05  4614.18  4736.91  5075.60
                             5075.60

 Zero-point correction=                           0.100781 (Hartree/Particle)
 Thermal correction to Energy=                    0.104713
 Thermal correction to Enthalpy=                  0.105657
 Thermal correction to Gibbs Free Energy=         0.074268
 Sum of electronic and zero-point Energies=           -155.568901
 Sum of electronic and thermal Energies=              -155.564969
 Sum of electronic and thermal Enthalpies=            -155.564025
 Sum of electronic and thermal Free Energies=         -155.595414

                     E (Thermal)             CV                S
                      KCal/Mol        Cal/Mol-Kelvin    Cal/Mol-Kelvin
 Total                   65.708             13.829             66.064
 Electronic               0.000              0.000              1.377
 Translational            0.889              2.981             37.993
 Rotational               0.889              2.981             23.585
 Vibrational             63.931              7.867              3.108
 Vibration     1          0.767              1.468              0.960
 Vibration     2          0.895              1.163              0.566
 Vibration     3          0.895              1.163              0.566

 Normal termination of Gaussian 09 at Sat Apr 16 16:34:51 2022.
