 Gaussian 09, Revision D.01,
 Gaussian 09:  AM64L-G09RevD.01 24-Apr-2013

 -----------------------
 #n AM1 Opt=modredundant
 -----------------------

 -------------------------
 Optimisation de geometrie
 -------------------------
 Symbolic Z-matrix:
 Charge =  0 Multiplicity = 1

 SCF Done:  E(RAM1) = -0.173743152039     A.U. after   13 cycles
 SCF Done:  E(RAM1) = -0.175770916047     A.U. after   11 cycles
 SCF Done:  E(RAM1) = -0.176053008598     A.U. after   10 cycles
 SCF Done:  E(RAM1) = -0.176099505690     A.U. after   10 cycles
 SCF Done:  E(RAM1) = -0.176114757609     A.U. after   10 cycles
 SCF Done:  E(RAM1) = -0.176125391264     A.U. after   10 cycles
 SCF Done:  E(RAM1) = -0.176128947798     A.U. after    9 cycles
 SCF Done:  E(RAM1) = -0.176131879776     A.U. after   10 cycles
 SCF Done:  E(RAM1) = -0.176133703939     A.U. after    9 cycles
 SCF Done:  E(RAM1) = -0.176134370975     A.U. after    9 cycles
 Optimization completed.
    -- Stationary point found.
 Optimization completed.
    -- Stationary point found.
 SCF Done:  E(RAM1) = -0.171673306921     A.U. after   11 cycles
 SCF Done:  E(RAM1) = -0.171762824536     A.U. after   11 cycles
 SCF Done:  E(RAM1) = -0.171803454138     A.U. after   11 cycles
 SCF Done:  E(RAM1) = -0.172788793713     A.U. after   13 cycles
 SCF Done:  E(RAM1) = -0.175280728829     A.U. after   12 cycles
 SCF Done:  E(RAM1) = -0.175901468392     A.U. after   12 cycles
 SCF Done:  E(RAM1) = -0.175992085655     A.U. after   11 cycles
 SCF Done:  E(RAM1) = -0.176120979750     A.U. after   11 cycles
 SCF Done:  E(RAM1) = -0.176134001965     A.U. after   10 cycles
 SCF Done:  E(RAM1) = -0.176134406950     A.U. after    9 cycles
 Optimization completed.
    -- Stationary point found.

                         Standard orientation:
 ---------------------------------------------------------------------
 Center     Atomic      Atomic             Coordinates (Angstroms)
 Number     Number       Type             X           Y           Z
 ---------------------------------------------------------------------
      1          6           0        0.698439   -0.599877    0.254723
      2          8           0        1.316763    0.593846   -0.200681
      3          6           0       -0.734430   -0.571299   -0.270682
      4          8           0       -1.437704    0.559051    0.198807
      5          1           0        0.702622   -0.631507    1.376426
      6          1           0        1.243379   -1.493665   -0.147641
      7          1           0        2.189576    0.629687    0.205995
      8          1           0       -1.304046   -1.455948    0.118193
      9          1           0       -0.728432   -0.581179   -1.393254
     10          1           0       -0.919627    1.336483   -0.048966
 ---------------------------------------------------------------------

 The electronic state is 1-A.
 Alpha  occ. eigenvalues --   -1.43960  -1.35476  -1.09897  -0.85801  -0.69946
 Alpha  occ. eigenvalues --   -0.65101  -0.60406  -0.57706  -0.53376  -0.50053
 Alpha  occ. eigenvalues --   -0.45669  -0.41482  -0.40323
 Alpha virt. eigenvalues --    0.11842   0.13218   0.14011   0.14182   0.15114
 Alpha virt. eigenvalues --    0.16594   0.17288   0.21822   0.23719

 Mulliken charges:
               1
     1  C   -0.063402
     2  O   -0.339298
     3  C   -0.017312
     4  O   -0.327406
     5  H    0.075190
     6  H    0.070363
     7  H    0.206222
     8  H    0.106110
     9  H    0.074976
    10  H    0.214556
 Sum of Mulliken charges =  -0.00000

 Dipole moment (field-independent basis, Debye):
    X=              1.9516    Y=             -1.2125    Z=              0.2451  Tot=              2.3106
 N-N= 1.035092171465D+02 E-N=-1.713813073410D+02  KE=-1.680545496708D+01
 1\1\GINC-GTX1080DELTA\Scan\RAM1\ZDO\C2H6O2\MVEROT\18-Apr-2022\0\\#n AM
 1 Opt=modredundant\\Optimisation de geometrie\\0,1\C,1.6829227894,2.08
 21848436,2.0347175381\O,0.4219189377,2.5936271801,1.6309982122\C,2.032
 3329569,0.9689926571,1.050493605\O,1.0598107582,-0.0541740943,1.056428
 531\H,1.6165123446,1.6744759666,3.0780765419\H,2.4571649783,2.89266058
 17,1.9974080121\H,0.1500615193,3.2296455533,2.301853185\H,2.9882572974
 ,0.4695308877,1.3587766412\H,2.1366812449,1.3939513125,0.0166545141\H,
 0.2076371735,0.3657051118,0.8783932194\\Version=AM64L-G09RevD.01\State
 =1-A\HF=-0.1761344,-0.17579,-0.1751015,-0.1742043,-0.1732933,-0.172551

 Normal termination of Gaussian 09 at Mon Apr 18 00:02:42 2022.
