 Gaussian 09, Revision D.01,
 Gaussian 09:  AM64L-G09RevD.01 24-Apr-2013

 --------------------
 # hf/6-31G* opt freq
 --------------------

 -------------------------
 Optimisation de geometrie
 -------------------------
 Symbolic Z-matrix:
 Charge =  0 Multiplicity = 1

 SCF Done:  E(RHF) =  -195.162659406     A.U. after   10 cycles
 SCF Done:  E(RHF) =  -195.163566004     A.U. after    8 cycles
 SCF Done:  E(RHF) =  -195.163580172     A.U. after    7 cycles
 Optimization completed.
    -- Stationary point found.
 Normal termination of Gaussian 09 at Sat Apr 16 12:25:16 2022.

 -----------------------------------------------------------------
 #N Geom=AllCheck Guess=TCheck SCRF=Check GenChk RHF/6-31G(d) Freq
 -----------------------------------------------------------------

 Structure from the checkpoint file:  "cyclopentane-opt.chk"
 -------------------------
 Optimisation de geometrie
 -------------------------
 Charge =  0 Multiplicity = 1

                         Standard orientation:
 ---------------------------------------------------------------------
 Center     Atomic      Atomic             Coordinates (Angstroms)
 Number     Number       Type             X           Y           Z
 ---------------------------------------------------------------------
      1          6           0       -1.165204   -0.505297   -0.198928
      2          6           0        0.092074   -1.248050    0.264111
      3          6           0       -0.849591    0.981303    0.065644
      4          6           0        1.224299   -0.330159   -0.206530
      5          6           0        0.699633    1.091694    0.075204
      6          1           0       -1.310177   -0.673365   -1.263134
      7          1           0       -2.067968   -0.837152    0.302943
      8          1           0        0.101620   -1.323673    1.349483
      9          1           0        0.164250   -2.255319   -0.133087
     10          1           0       -1.300826    1.625915   -0.680651
     11          1           0       -1.254007    1.286509    1.025345
     12          1           0        2.171492   -0.531601    0.282658
     13          1           0        1.378685   -0.467772   -1.273890
     14          1           0        1.064447    1.807817   -0.652933
     15          1           0        1.045227    1.431693    1.046257
 ---------------------------------------------------------------------

 SCF Done:  E(RHF) =  -195.163580172     A.U. after    1 cycles

 The electronic state is 1-A.
 Alpha  occ. eigenvalues --  -11.21026 -11.20987 -11.20983 -11.20929 -11.20908
 Alpha  occ. eigenvalues --   -1.11311  -0.95695  -0.95634  -0.77711  -0.76917
 Alpha  occ. eigenvalues --   -0.64911  -0.64311  -0.56995  -0.56853  -0.47467
 Alpha  occ. eigenvalues --   -0.47378  -0.46285  -0.45908  -0.45901  -0.44995
 Alpha virt. eigenvalues --    0.22437   0.24632   0.29414   0.29433   0.32241
 Alpha virt. eigenvalues --    0.33400   0.33482   0.34614   0.35321   0.36496
 Alpha virt. eigenvalues --    0.37488   0.41551   0.42193   0.47745   0.50990

 Mulliken charges:
               1
     1  C   -0.321695
     2  C   -0.318009
     3  C   -0.326756
     4  C   -0.321184
     5  C   -0.326731
     6  H    0.157213
     7  H    0.164363
     8  H    0.154536
     9  H    0.162790
    10  H    0.164869
    11  H    0.162410
    12  H    0.164207
    13  H    0.156878
    14  H    0.164969
    15  H    0.162138
 Sum of Mulliken charges =  -0.00000

 Dipole moment (field-independent basis, Debye):
    X=              0.0001    Y=             -0.0011    Z=              0.0010  Tot=              0.0015
 Quadrupole moment (field-independent basis, Debye-Ang):
   XX=            -33.9284   YY=            -33.9505   ZZ=            -32.8127
   XY=              0.0025   XZ=              0.0003   YZ=             -0.0245

  Exact polarizability:  49.767   0.008  49.680  -0.001   0.086  46.008
 Approx polarizability:  41.390  -0.000  41.384  -0.001   0.083  43.741

 ******    1 imaginary frequencies (negative Signs) ******

                      1                      2                      3
                      A                      A                      A
 Frequencies --    -13.3570               279.3282               588.5046
 Red. masses --      1.5663                 1.6070                 1.7062
 Frc consts  --      0.0002                 0.0739                 0.3482
 IR Inten    --      0.0001                 0.0041                 0.5291
 Raman Activ --      0.0101                 0.0202                 0.6434

                      4                      5                      6
                      A                      A                      A
 Frequencies --    663.0196               828.4160               889.9697
 Red. masses --      2.4608                 1.1721                 1.6349
 Frc consts  --      0.6374                 0.4739                 0.7629
 IR Inten    --      0.0585                 0.4303                 0.1240
 Raman Activ --      1.5897                 0.0202                 0.9590

                      7                      8                      9
                      A                      A                      A
 Frequencies --    940.5340               940.9678               967.8773
 Red. masses --      3.1301                 2.2607                 2.1253
 Frc consts  --      1.6314                 1.1794                 1.1731
 IR Inten    --      0.1181                 0.3410                 1.5140
 Raman Activ --     21.2127                 9.6726                 0.2966

                     10                     11                     12
                      A                      A                      A
 Frequencies --    972.3582              1053.5207              1088.4032
 Red. masses --      2.3051                 1.2086                 1.2302
 Frc consts  --      1.2841                 0.7904                 0.8587
 IR Inten    --      1.5225                 0.8981                 0.4016
 Raman Activ --      3.5680                 0.3950                 1.2169

                     13                     14                     15
                      A                      A                      A
 Frequencies --   1114.1793              1137.6630              1304.8978
 Red. masses --      1.6935                 1.9715                 1.3777
 Frc consts  --      1.2386                 1.5034                 1.3822
 IR Inten    --      0.0004                 0.0091                 0.0017
 Raman Activ --     10.4973                 9.0268                 8.1694

                     16                     17                     18
                      A                      A                      A
 Frequencies --   1327.8422              1349.5176              1360.5054
 Red. masses --      1.4962                 1.4270                 1.4056
 Frc consts  --      1.5543                 1.5312                 1.5329
 IR Inten    --      0.7132                 0.0789                 0.7236
 Raman Activ --      0.1513                 7.4583                 7.9012

                     19                     20                     21
                      A                      A                      A
 Frequencies --   1402.1213              1442.8174              1459.0492
 Red. masses --      1.1111                 1.3433                 1.2568
 Frc consts  --      1.2870                 1.6475                 1.5764
 IR Inten    --      0.8255                 0.0207                 0.4715
 Raman Activ --     17.6339                 0.0217                 9.3914

                     22                     23                     24
                      A                      A                      A
 Frequencies --   1484.0661              1495.0899              1497.3184
 Red. masses --      1.3147                 1.4949                 1.4881
 Frc consts  --      1.7061                 1.9688                 1.9656
 IR Inten    --      0.0334                 0.3795                 0.3913
 Raman Activ --      1.5963                 0.0404                 0.1330

                     25                     26                     27
                      A                      A                      A
 Frequencies --   1631.4217              1638.1473              1646.7939
 Red. masses --      1.0815                 1.0879                 1.1043
 Frc consts  --      1.6959                 1.7200                 1.7645
 IR Inten    --      0.0188                 3.5233                 0.4972
 Raman Activ --     25.0796                17.7848                 3.7007

                     28                     29                     30
                      A                      A                      A
 Frequencies --   1648.1835              1676.1617              3195.5590
 Red. masses --      1.1031                 1.1115                 1.0729
 Frc consts  --      1.7655                 1.8398                 6.4551
 IR Inten    --      1.1926                 0.0371                28.7987
 Raman Activ --      3.4923                 6.5149               113.3344

                     31                     32                     33
                      A                      A                      A
 Frequencies --   3200.0400              3203.7483              3209.8062
 Red. masses --      1.0682                 1.0649                 1.0674
 Frc consts  --      6.4451                 6.4396                 6.4797
 IR Inten    --     25.6240                44.3025                28.2533
 Raman Activ --     13.5269                84.6342                29.1673

                     34                     35                     36
                      A                      A                      A
 Frequencies --   3226.7377              3239.3660              3252.4955
 Red. masses --      1.0698                 1.0959                 1.0891
 Frc consts  --      6.5625                 6.7756                 6.7883
 IR Inten    --     72.5827                54.7901                25.3597
 Raman Activ --    125.1728                 7.5929               189.7249

                     37                     38                     39
                      A                      A                      A
 Frequencies --   3254.9272              3255.4762              3273.1126
 Red. masses --      1.1011                 1.1036                 1.1065
 Frc consts  --      6.8730                 6.8909                 6.9840
 IR Inten    --     29.7434                36.9736               157.2955
 Raman Activ --    137.1489               110.4844                49.6931

 - Thermochemistry -
 -------------------
 Temperature   298.150 Kelvin.  Pressure   1.00000 Atm.
 Atom     1 has atomic number  6 and mass  12.00000

 Molecular mass:    70.07825 amu.
 Principal axes and moments of inertia in atomic units:
                           1         2         3
     Eigenvalues --   276.56239 276.64169 479.83814
           X            0.99728   0.07370  -0.00001
           Y           -0.07370   0.99728   0.00151
           Z            0.00012  -0.00150   1.00000
 This molecule is an asymmetric top.
 Rotational symmetry number  1.
 Rotational temperatures (Kelvin)      0.31318     0.31309     0.18051
 Rotational constants (GHZ):           6.52562     6.52375     3.76115
    1 imaginary frequencies ignored.
 Zero-point vibrational energy     395604.7 (Joules/Mol)
                                   94.55180 (Kcal/Mol)
 Warning -- explicit consideration of   2 degrees of freedom as
           vibrations may cause significant error
 Vibrational temperatures:    401.89   846.73   953.94  1191.90  1280.47
          (Kelvin)           1353.22  1353.84  1392.56  1399.00  1515.78
                             1565.97  1603.05  1636.84  1877.45  1910.47
                             1941.65  1957.46  2017.34  2075.89  2099.24
                             2135.24  2151.10  2154.30  2347.25  2356.93
                             2369.37  2371.37  2411.62  4597.69  4604.14
                             4609.47  4618.19  4642.55  4660.72  4679.61
                             4683.11  4683.90  4709.27

 Zero-point correction=                           0.150678 (Hartree/Particle)
 Thermal correction to Energy=                    0.154742
 Thermal correction to Enthalpy=                  0.155686
 Thermal correction to Gibbs Free Energy=         0.123676
 Sum of electronic and zero-point Energies=           -195.012902
 Sum of electronic and thermal Energies=              -195.008839
 Sum of electronic and thermal Enthalpies=            -195.007894
 Sum of electronic and thermal Free Energies=         -195.039904

                     E (Thermal)             CV                S
                      KCal/Mol        Cal/Mol-Kelvin    Cal/Mol-Kelvin
 Total                   97.102             14.859             67.370
 Electronic               0.000              0.000              0.000
 Translational            0.889              2.981             38.658
 Rotational               0.889              2.981             25.110
 Vibrational             95.324              8.897              3.602
 Vibration     1          0.680              1.712              1.538
 Vibration     2          0.946              1.056              0.470

 Normal termination of Gaussian 09 at Sat Apr 16 12:25:31 2022.
