 Gaussian 09, Revision D.01,
 Gaussian 09:  AM64L-G09RevD.01 24-Apr-2013

 ----------
 #n PM3 Opt
 ----------

 -------------------------
 Optimisation de geometrie
 -------------------------
 Symbolic Z-matrix:
 Charge =  0 Multiplicity = 1

 SCF Done:  E(RPM3) = -0.152926843345     A.U. after   13 cycles
 SCF Done:  E(RPM3) = -0.156571524081     A.U. after   11 cycles
 SCF Done:  E(RPM3) = -0.156794087210     A.U. after   11 cycles
 SCF Done:  E(RPM3) = -0.156819503941     A.U. after   10 cycles
 SCF Done:  E(RPM3) = -0.156841288935     A.U. after   11 cycles
 SCF Done:  E(RPM3) = -0.156850144933     A.U. after   10 cycles
 Optimization completed.
    -- Stationary point found.

                         Standard orientation:
 ---------------------------------------------------------------------
 Center     Atomic      Atomic             Coordinates (Angstroms)
 Number     Number       Type             X           Y           Z
 ---------------------------------------------------------------------
      1          6           0       -0.580413   -0.502262    0.068036
      2          8           0       -1.829759    0.106706   -0.103317
      3          6           0        0.580399    0.502312   -0.067537
      4          8           0        1.829810   -0.106811    0.102838
      5          1           0       -0.560289   -1.260890   -0.734378
      6          1           0       -0.532598   -1.037795    1.036151
      7          1           0       -1.927363    0.750293    0.587584
      8          1           0        0.560708    1.260468    0.735330
      9          1           0        0.532102    1.038420   -1.035316
     10          1           0        1.927120   -0.749951   -0.588527
 ---------------------------------------------------------------------

 The electronic state is 1-A.
 Alpha  occ. eigenvalues --   -1.46934  -1.35333  -1.04743  -0.84147  -0.67022
 Alpha  occ. eigenvalues --   -0.66235  -0.61540  -0.56382  -0.53952  -0.50901
 Alpha  occ. eigenvalues --   -0.44238  -0.43915  -0.40457
 Alpha virt. eigenvalues --    0.10706   0.12271   0.13055   0.13302   0.14861
 Alpha virt. eigenvalues --    0.15063   0.16414   0.19726   0.20454

 Mulliken charges:
               1
     1  C    0.025057
     2  O   -0.301210
     3  C    0.025055
     4  O   -0.301212
     5  H    0.053937
     6  H    0.037985
     7  H    0.184231
     8  H    0.053932
     9  H    0.037989
    10  H    0.184235
 Sum of Mulliken charges =   0.00000

 Dipole moment (field-independent basis, Debye):
    X=             -0.0005    Y=              0.0007    Z=              0.0002  Tot=              0.0009
 N-N= 9.980102536306D+01 E-N=-1.623136566912D+02  KE=-1.848609645634D+01
 1\1\GINC-GTX1080DELTA\FOpt\RPM3\ZDO\C2H6O2\MVEROT\17-Apr-2022\0\\#n PM
 3 Opt\\Optimisation de geometrie\\0,1\C,2.2633228438,2.3149693143,2.12
 21958719\O,1.2329048884,2.7808439814,2.9481902259\C,1.8588219628,1.046
 5446801,1.3459801688\O,2.8895657766,0.5800792382,0.5207140214\H,3.0829
 936308,2.1142129472,2.8346753964\H,2.6063671184,3.1111031947,1.4331230
 206\H,0.5029050558,3.0107339347,2.3866513355\H,1.0396796861,1.24749324
 24,0.6329518198\H,1.5150100016,0.2507012219,2.0350129111\H,3.619119035
 7,0.3499082449,1.0827252285\\Version=AM64L-G09RevD.01\State=1-A\HF=-0.
 1568501\RMSD=5.853e-09\RMSF=3.743e-05\Dipole=-0.0003521,0.0000463,0.00

 Normal termination of Gaussian 09 at Sun Apr 17 23:35:43 2022.
