 Gaussian 09, Revision D.01,
 Gaussian 09:  AM64L-G09RevD.01 24-Apr-2013

 ----------
 #n PM3 Opt
 ----------

 -------------------------
 Optimisation de geometrie
 -------------------------
 Symbolic Z-matrix:
 Charge =  0 Multiplicity = 1

 SCF Done:  E(RPM3) = -0.164665707142     A.U. after   13 cycles
 SCF Done:  E(RPM3) = -0.168380025086     A.U. after   12 cycles
 SCF Done:  E(RPM3) = -0.169346280100     A.U. after   12 cycles
 SCF Done:  E(RPM3) = -0.169989469582     A.U. after   12 cycles
 SCF Done:  E(RPM3) = -0.170219955693     A.U. after   12 cycles
 SCF Done:  E(RPM3) = -0.170350715178     A.U. after   12 cycles
 SCF Done:  E(RPM3) = -0.170426871519     A.U. after   11 cycles
 SCF Done:  E(RPM3) = -0.170483508379     A.U. after   11 cycles
 SCF Done:  E(RPM3) = -0.170500658647     A.U. after   12 cycles
 SCF Done:  E(RPM3) = -0.956285544522E-01 A.U. after   15 cycles
 SCF Done:  E(RPM3) = -0.170601438319     A.U. after   11 cycles
 SCF Done:  E(RPM3) = -0.170636672245     A.U. after   11 cycles
 SCF Done:  E(RPM3) = -0.170648261087     A.U. after   11 cycles
 SCF Done:  E(RPM3) = -0.170660255276     A.U. after   11 cycles
 SCF Done:  E(RPM3) = -0.170662927501     A.U. after   10 cycles
 SCF Done:  E(RPM3) = -0.170664251437     A.U. after   10 cycles
 SCF Done:  E(RPM3) = -0.170664540254     A.U. after    9 cycles
 SCF Done:  E(RPM3) = -0.170664780178     A.U. after   10 cycles
 SCF Done:  E(RPM3) = -0.170664991229     A.U. after   10 cycles
 SCF Done:  E(RPM3) = -0.170665042173     A.U. after    9 cycles
 Optimization completed.
    -- Stationary point found.

                         Standard orientation:
 ---------------------------------------------------------------------
 Center     Atomic      Atomic             Coordinates (Angstroms)
 Number     Number       Type             X           Y           Z
 ---------------------------------------------------------------------
      1          6           0       -0.506937    0.972751   -0.212960
      2          6           0       -1.474902    0.201524    0.686023
      3          8           0       -2.408748   -0.565436   -0.027795
      4          6           0        0.446647    0.025886   -0.927183
      5          6           0        1.395096   -0.676444    0.044379
      6          8           0        2.442361    0.211524    0.359578
      7          1           0        0.061328    1.698994    0.399146
      8          1           0       -1.066194    1.573898   -0.956331
      9          1           0       -2.104245    0.872702    1.293106
     10          1           0       -0.896638   -0.456039    1.375040
     11          1           0       -1.919024   -1.035646   -0.696621
     12          1           0        1.016804    0.574158   -1.701878
     13          1           0       -0.145890   -0.744344   -1.468062
     14          1           0        1.809674   -1.596869   -0.410124
     15          1           0        0.836901   -0.973747    0.962500
     16          1           0        2.978953   -0.224116    1.007403
 ---------------------------------------------------------------------

 The electronic state is 1-A.
 Alpha  occ. eigenvalues --   -1.49586  -1.38471  -1.22328  -1.00816  -0.87778
 Alpha  occ. eigenvalues --   -0.73975  -0.68516  -0.64776  -0.61041  -0.59386
 Alpha  occ. eigenvalues --   -0.56618  -0.53983  -0.51300  -0.50256  -0.46156
 Alpha  occ. eigenvalues --   -0.45120  -0.44212  -0.41128  -0.39757
 Alpha virt. eigenvalues --    0.11119   0.11878   0.12535   0.13190   0.13274
 Alpha virt. eigenvalues --    0.13665   0.14245   0.14796   0.15574   0.15743
 Alpha virt. eigenvalues --    0.17085   0.17686   0.17873   0.20217   0.20891

 Mulliken charges:
               1
     1  C   -0.147142
     2  C    0.056848
     3  O   -0.314718
     4  C   -0.110970
     5  C    0.061774
     6  O   -0.308301
     7  H    0.072327
     8  H    0.063269
     9  H    0.056687
    10  H    0.029388
    11  H    0.185312
    12  H    0.071200
    13  H    0.044912
    14  H    0.022773
    15  H    0.031275
    16  H    0.185366
 Sum of Mulliken charges =  -0.00000

 Dipole moment (field-independent basis, Debye):
    X=              1.4104    Y=             -1.1014    Z=              0.2639  Tot=              1.8088
 N-N= 1.749415744556D+02 E-N=-2.964961226273D+02  KE=-2.662431510820D+01
 1\1\GINC-GTX1080DELTA\FOpt\RPM3\ZDO\C4H10O2\MVEROT\17-Apr-2022\0\\#n P
 M3 Opt\\Optimisation de geometrie\\0,1\C,1.8097720095,1.1198554416,1.5
 493063684\C,1.4200661303,1.1903253742,3.02683174\O,1.0295750533,-0.047
 5567806,3.5606821629\C,3.1097417993,0.3506565105,1.3638271335\C,4.3030
 900392,1.0806084232,1.9801430502\O,4.7178813016,2.0851824874,1.0838281
 938\H,1.9115396993,2.1464154218,1.1482512788\H,1.0031570676,0.64190722
 ,0.9596591551\H,0.5396588082,1.8318737417,3.1953559562\H,2.2720007407,
 1.6016123964,3.6155360468\H,1.6834785033,-0.6819752736,3.2810776355\H,
 3.2848409815,0.1546794491,0.2882956068\H,3.0122148243,-0.6464079568,1.

 Normal termination of Gaussian 09 at Sun Apr 17 23:36:15 2022.
