 Gaussian 09, Revision D.01,
 Gaussian 09:  AM64L-G09RevD.01 24-Apr-2013

 ----------
 #n AM1 Opt
 ----------

 ---------------------
 Geometry optimization
 ---------------------
 Symbolic Z-matrix:
 Charge =  0 Multiplicity = 1

 SCF Done:  E(RAM1) = -0.140871460396     A.U. after   15 cycles
 SCF Done:  E(RAM1) = -0.144967584669     A.U. after   14 cycles
 SCF Done:  E(RAM1) = -0.145563293545     A.U. after   12 cycles
 SCF Done:  E(RAM1) = -0.145635240788     A.U. after   12 cycles
 SCF Done:  E(RAM1) = -0.145640207554     A.U. after   12 cycles
 SCF Done:  E(RAM1) = -0.145638494700     A.U. after   12 cycles
 SCF Done:  E(RAM1) = -0.145643125710     A.U. after   11 cycles
 SCF Done:  E(RAM1) = -0.145643547920     A.U. after   11 cycles
 SCF Done:  E(RAM1) = -0.145643904930     A.U. after   12 cycles
 SCF Done:  E(RAM1) = -0.145644094892     A.U. after   11 cycles
 SCF Done:  E(RAM1) = -0.145644211402     A.U. after   11 cycles
 Optimization completed.
    -- Stationary point found.

                         Standard orientation:
 ---------------------------------------------------------------------
 Center     Atomic      Atomic             Coordinates (Angstroms)
 Number     Number       Type             X           Y           Z
 ---------------------------------------------------------------------
      1          6           0        0.634953    1.473515   -0.000827
      2          6           0        1.895806    0.702366   -0.000131
      3          6           0       -0.624844    0.700591   -0.000299
      4          8           0        0.632975    2.713219   -0.001731
      5          6           0        0.634953   -1.473515   -0.000599
      6          6           0       -0.624844   -0.700591   -0.000405
      7          8           0        0.632975   -2.713219   -0.001161
      8          6           0        1.895806   -0.702366   -0.000123
      9          6           0        3.112374    1.394451    0.000447
     10          6           0       -1.838193   -1.399615   -0.000214
     11          6           0        3.112374   -1.394451    0.000413
     12          6           0       -1.838193    1.399615    0.000176
     13          6           0        4.320540    0.696647    0.001024
     14          6           0        4.320540   -0.696646    0.001002
     15          6           0       -3.052318    0.708614    0.000461
     16          6           0       -3.052319   -0.708614    0.000220
     17          1           0        3.101444    2.497340    0.000407
     18          1           0       -1.823204   -2.502354   -0.000416
     19          1           0        3.101444   -2.497340    0.000363
     20          1           0       -1.823204    2.502354    0.000266
     21          1           0        5.271888    1.250116    0.001470
     22          1           0        5.271888   -1.250116    0.001455
     23          8           0       -4.273446    1.333537    0.001018
     24          1           0       -4.116265    2.290762    0.000759
     25          8           0       -4.273446   -1.333536    0.000474
     26          1           0       -4.116265   -2.290762    0.000030
 ---------------------------------------------------------------------

 The electronic state is 1-A.
 Alpha  occ. eigenvalues --   -1.54328  -1.49521  -1.45257  -1.42418  -1.41577
 Alpha  occ. eigenvalues --   -1.36366  -1.23120  -1.18094  -1.16535  -1.12323
 Alpha  occ. eigenvalues --   -0.99056  -0.94834  -0.88792  -0.86559  -0.81161
 Alpha  occ. eigenvalues --   -0.76422  -0.72944  -0.69638  -0.67065  -0.66458
 Alpha  occ. eigenvalues --   -0.62152  -0.61932  -0.60850  -0.60313  -0.57645
 Alpha  occ. eigenvalues --   -0.57451  -0.56496  -0.56389  -0.55247  -0.54616
 Alpha  occ. eigenvalues --   -0.52610  -0.52226  -0.51969  -0.50096  -0.48791
 Alpha  occ. eigenvalues --   -0.48475  -0.46117  -0.45955  -0.41764  -0.40093
 Alpha  occ. eigenvalues --   -0.37885  -0.37573  -0.37278  -0.34193
 Alpha virt. eigenvalues --   -0.05393  -0.01841  -0.00871  -0.00329   0.04522
 Alpha virt. eigenvalues --    0.04938   0.08058   0.08313   0.09042   0.09681
 Alpha virt. eigenvalues --    0.09764   0.10153   0.12179   0.12315   0.12636

 Mulliken charges:
               1
     1  C    0.308498
     2  C   -0.107391
     3  C   -0.101493
     4  O   -0.288656
     5  C    0.308498
     6  C   -0.101493
     7  O   -0.288656
     8  C   -0.107391
     9  C   -0.086434
    10  C   -0.148694
    11  C   -0.086434
    12  C   -0.148694
    13  C   -0.116251
    14  C   -0.116251
    15  C    0.070942
    16  C    0.070942
    17  H    0.160722
    18  H    0.165180
    19  H    0.160722
    20  H    0.165180
    21  H    0.142359
    22  H    0.142359
    23  O   -0.221416
    24  H    0.222634
    25  O   -0.221416
    26  H    0.222635
 Sum of Mulliken charges =   0.00000

 Dipole moment (field-independent basis, Debye):
    X=              1.7320    Y=             -0.0000    Z=              0.0026  Tot=              1.7320
 N-N= 6.623241888738D+02 E-N=-1.195769080240D+03  KE=-6.215886560312D+01
 1\1\GINC-GTX1080DELTA\FOpt\RAM1\ZDO\C14H8O4\MVEROT\11-Apr-2022\0\\#n A
 M1 Opt\\Geometry optimization\\0,1\C,0.0240010765,1.4800323252,-0.0196
 760199\C,1.2851018024,0.7093473519,-0.0101449934\C,-1.2355410927,0.706
 8428447,-0.0044857748\O,0.0216202456,2.7195786314,-0.0394418814\C,0.02
 49544903,-1.4666519747,0.0254036496\C,-1.2350883976,-0.6941778624,0.01
 6733654\O,0.0233760387,-2.7062219401,0.0437131239\C,1.2855560271,-0.69
 52218954,0.0112426914\C,2.5014445271,1.4017121729,-0.0228991257\C,-2.4
 482079189,-1.3934682596,0.0303548577\C,2.502346314,-1.3868680832,0.019
 5116079\C,-2.4491119546,1.4054435922,-0.0118572531\C,3.7098343389,0.70

 Normal termination of Gaussian 09 at Mon Apr 11 23:41:16 2022.
