 Gaussian 09, Revision D.01,
 Gaussian 09:  AM64L-G09RevD.01 24-Apr-2013

 --------------------
 # hf/6-31G* opt freq
 --------------------

 -------------------------
 Optimisation de geometrie
 -------------------------
 Symbolic Z-matrix:
 Charge =  0 Multiplicity = 1

 SCF Done:  E(RHF) =  -156.109358160     A.U. after   10 cycles
 SCF Done:  E(RHF) =  -156.110372099     A.U. after    9 cycles
 SCF Done:  E(RHF) =  -156.110406797     A.U. after    9 cycles
 SCF Done:  E(RHF) =  -156.110407744     A.U. after    8 cycles
 Optimization completed.
    -- Stationary point found.
 Normal termination of Gaussian 09 at Sat Apr 16 11:53:31 2022.

 -----------------------------------------------------------------
 #N Geom=AllCheck Guess=TCheck SCRF=Check GenChk RHF/6-31G(d) Freq
 -----------------------------------------------------------------

 Structure from the checkpoint file:  "2-butene-E-opt.chk"
 -------------------------
 Optimisation de geometrie
 -------------------------
 Charge =  0 Multiplicity = 1

                         Standard orientation:
 ---------------------------------------------------------------------
 Center     Atomic      Atomic             Coordinates (Angstroms)
 Number     Number       Type             X           Y           Z
 ---------------------------------------------------------------------
      1          6           0       -0.530072   -0.392917   -0.000023
      2          6           0        0.530072    0.392917   -0.000052
      3          6           0        1.957540   -0.077901    0.000019
      4          6           0       -1.957540    0.077901    0.000026
      5          1           0       -0.386859   -1.463476   -0.000070
      6          1           0        0.386859    1.463476   -0.000050
      7          1           0        2.018443   -1.160850   -0.001446
      8          1           0        2.490316    0.290850   -0.872997
      9          1           0        2.489396    0.288409    0.874636
     10          1           0       -2.489791   -0.289329   -0.873960
     11          1           0       -2.489922   -0.289931    0.873675
     12          1           0       -2.018443    1.160850    0.000395
 ---------------------------------------------------------------------

 SCF Done:  E(RHF) =  -156.110407744     A.U. after    1 cycles

 The electronic state is 1-A.
 Alpha  occ. eigenvalues --  -11.21961 -11.21784 -11.21441 -11.21440  -1.07604
 Alpha  occ. eigenvalues --   -0.98188  -0.87962  -0.74362  -0.60525  -0.60358
 Alpha  occ. eigenvalues --   -0.57049  -0.55387  -0.52227  -0.50867  -0.47639
 Alpha  occ. eigenvalues --   -0.34126
 Alpha virt. eigenvalues --    0.20052   0.26374   0.26411   0.27504   0.32315
 Alpha virt. eigenvalues --    0.32538   0.33966   0.34184   0.34526   0.42601
 Alpha virt. eigenvalues --    0.47012   0.61578   0.69183   0.72327   0.75356

 Mulliken charges:
               1
     1  C   -0.162944
     2  C   -0.162944
     3  C   -0.508318
     4  C   -0.508318
     5  H    0.168072
     6  H    0.168072
     7  H    0.168691
     8  H    0.167236
     9  H    0.167262
    10  H    0.167252
    11  H    0.167246
    12  H    0.168691
 Sum of Mulliken charges =  -0.00000

 Dipole moment (field-independent basis, Debye):
    X=              0.0000    Y=             -0.0000    Z=              0.0001  Tot=              0.0001
 Quadrupole moment (field-independent basis, Debye-Ang):
   XX=            -25.8035   YY=            -25.4869   ZZ=            -28.1128
   XY=              0.3691   XZ=              0.0001   YZ=              0.0001

  Exact polarizability:  56.524   6.462  40.473   0.001   0.000  28.582
 Approx polarizability:  41.318   5.960  36.635   0.001  -0.000  26.398

                      1                      2                      3
                      A                      A                      A
 Frequencies --    184.4839               236.9286               264.2807
 Red. masses --      1.0477                 1.2552                 2.2325
 Frc consts  --      0.0210                 0.0415                 0.0919
 IR Inten    --      0.6068                 0.0000                 3.0590
 Raman Activ --      0.0000                 3.0506                 0.0000

                      4                      5                      6
                      A                      A                      A
 Frequencies --    303.8076               534.9689               837.2046
 Red. masses --      2.3712                 2.8075                 1.2874
 Frc consts  --      0.1289                 0.4734                 0.5317
 IR Inten    --      0.8476                 0.0000                 0.0000
 Raman Activ --      0.0000                 5.2137                17.4562

                      7                      8                      9
                      A                      A                      A
 Frequencies --    940.8808              1071.3731              1109.4736
 Red. masses --      1.7693                 1.2994                 1.0582
 Frc consts  --      0.9228                 0.8787                 0.7674
 IR Inten    --      0.0000                 9.8199                29.5784
 Raman Activ --     10.0496                 0.0000                 0.0000

                     10                     11                     12
                      A                      A                      A
 Frequencies --   1148.0744              1179.0464              1186.7945
 Red. masses --      2.9085                 1.4250                 1.6298
 Frc consts  --      2.2587                 1.1672                 1.3525
 IR Inten    --      0.4270                 5.7478                 0.0000
 Raman Activ --      0.0000                 0.0000                 2.0070

                     13                     14                     15
                      A                      A                      A
 Frequencies --   1269.4287              1454.9332              1456.4192
 Red. masses --      1.8996                 1.2812                 1.2759
 Frc consts  --      1.8035                 1.5979                 1.5945
 IR Inten    --      0.0000                 0.0000                 4.5938
 Raman Activ --      7.4189                30.4778                 0.0000

                     16                     17                     18
                      A                      A                      A
 Frequencies --   1566.3409              1568.9450              1625.8144
 Red. masses --      1.2792                 1.2550                 1.0451
 Frc consts  --      1.8491                 1.8202                 1.6277
 IR Inten    --      4.7238                 0.0000                 9.8040
 Raman Activ --      0.0000                19.2112                 0.0001

                     19                     20                     21
                      A                      A                      A
 Frequencies --   1625.9032              1636.3882              1642.6031
 Red. masses --      1.0462                 1.0576                 1.0437
 Frc consts  --      1.6295                 1.6685                 1.6592
 IR Inten    --      0.0000                 0.0000                12.1288
 Raman Activ --     35.1384                55.4211                 0.0000

                     22                     23                     24
                      A                      A                      A
 Frequencies --   1914.9896              3190.7803              3191.8550
 Red. masses --      5.5343                 1.0378                 1.0376
 Frc consts  --     11.9577                 6.2250                 6.2282
 IR Inten    --      0.0000                92.6580                 0.0001
 Raman Activ --     30.3468                 0.0002               313.1877

                     25                     26                     27
                      A                      A                      A
 Frequencies --   3237.0460              3237.1448              3267.2280
 Red. masses --      1.1016                 1.1015                 1.1006
 Frc consts  --      6.8008                 6.8009                 6.9221
 IR Inten    --     86.3367                 0.0026                41.7027
 Raman Activ --      0.0069               224.1369                 0.0001

                     28                     29                     30
                      A                      A                      A
 Frequencies --   3269.4419              3311.4086              3316.5287
 Red. masses --      1.1016                 1.0945                 1.0871
 Frc consts  --      6.9379                 7.0711                 7.0450
 IR Inten    --      0.0000                 0.0000                83.2864
 Raman Activ --    146.4330               128.7359                 0.0000

 - Thermochemistry -
 -------------------
 Temperature   298.150 Kelvin.  Pressure   1.00000 Atm.
 Atom     1 has atomic number  6 and mass  12.00000

 Molecular mass:    56.06260 amu.
 Principal axes and moments of inertia in atomic units:
                           1         2         3
     Eigenvalues --    51.05473 483.15637 512.22672
           X            0.99998  -0.00549   0.00000
           Y            0.00549   0.99998   0.00001
           Z           -0.00000  -0.00001   1.00000
 This molecule is an asymmetric top.
 Rotational symmetry number  1.
 Rotational temperatures (Kelvin)      1.69649     0.17927     0.16909
 Rotational constants (GHZ):          35.34915     3.73531     3.52333
 Zero-point vibrational energy     303734.9 (Joules/Mol)
                                   72.59439 (Kcal/Mol)
 Warning -- explicit consideration of   5 degrees of freedom as
           vibrations may cause significant error
 Vibrational temperatures:    265.43   340.89   380.24   437.11   769.70
          (Kelvin)           1204.55  1353.72  1541.47  1596.28  1651.82
                             1696.38  1707.53  1826.42  2093.32  2095.46
                             2253.61  2257.36  2339.18  2339.31  2354.39
                             2363.34  2755.24  4590.82  4592.36  4657.38
                             4657.52  4700.81  4703.99  4764.37  4771.74

 Zero-point correction=                           0.115687 (Hartree/Particle)
 Thermal correction to Energy=                    0.120958
 Thermal correction to Enthalpy=                  0.121903
 Thermal correction to Gibbs Free Energy=         0.088439
 Sum of electronic and zero-point Energies=           -155.994721
 Sum of electronic and thermal Energies=              -155.989449
 Sum of electronic and thermal Enthalpies=            -155.988505
 Sum of electronic and thermal Free Energies=         -156.021969

                     E (Thermal)             CV                S
                      KCal/Mol        Cal/Mol-Kelvin    Cal/Mol-Kelvin
 Total                   75.902             17.134             70.431
 Electronic               0.000              0.000              0.000
 Translational            0.889              2.981             37.993
 Rotational               0.889              2.981             24.050
 Vibrational             74.125             11.173              8.387
 Vibration     1          0.631              1.861              2.283
 Vibration     2          0.656              1.784              1.826
 Vibration     3          0.671              1.738              1.633
 Vibration     4          0.695              1.666              1.396
 Vibration     5          0.890              1.173              0.576

 Normal termination of Gaussian 09 at Sat Apr 16 11:53:39 2022.
