 Gaussian 09, Revision D.01,
 Gaussian 09:  AM64L-G09RevD.01 24-Apr-2013

 -----------
 #n AM1 freq
 -----------

 -------------------------
 Optimisation de geometrie
 -------------------------
 Symbolic Z-matrix:
 Charge =  1 Multiplicity = 2

                         Standard orientation:
 ---------------------------------------------------------------------
 Center     Atomic      Atomic             Coordinates (Angstroms)
 Number     Number       Type             X           Y           Z
 ---------------------------------------------------------------------
      1          6           0        0.850200    0.683872    0.010552
      2          6           0       -0.683172    0.849931   -0.039024
      3          6           0       -0.850199   -0.683874   -0.010621
      4          6           0        0.683171   -0.849931    0.039093
      5          1           0        1.321988    1.105003    0.922704
      6          1           0        1.376515    1.065574   -0.889112
      7          1           0       -1.056934    1.328969   -0.967884
      8          1           0       -1.111434    1.368677    0.843922
      9          1           0       -1.322129   -1.105124   -0.922722
     10          1           0       -1.376359   -1.065453    0.889104
     11          1           0        1.111304   -1.368524   -0.843921
     12          1           0        1.057045   -1.329111    0.967911
 ---------------------------------------------------------------------

 SCF Done:  E(UAM1) =  0.399272671417     A.U. after   37 cycles

 The electronic state is 2-A.
 Alpha  occ. eigenvalues --   -1.66825  -1.22218  -1.21155  -0.95473  -0.84755
 Alpha  occ. eigenvalues --   -0.82318  -0.73507  -0.71595  -0.70445  -0.67066
 Alpha  occ. eigenvalues --   -0.65940  -0.62989
 Alpha virt. eigenvalues --   -0.12479  -0.11922  -0.09254  -0.08613  -0.07977
 Alpha virt. eigenvalues --   -0.06207  -0.05011  -0.04959  -0.04910  -0.03409
 Alpha virt. eigenvalues --   -0.03405  -0.02835
  Beta  occ. eigenvalues --   -1.64588  -1.19988  -1.19190  -0.93054  -0.84205
  Beta  occ. eigenvalues --   -0.79170  -0.70949  -0.70758  -0.70261  -0.65656
  Beta  occ. eigenvalues --   -0.62545
  Beta virt. eigenvalues --   -0.38562  -0.11861  -0.10186  -0.08090  -0.07996
  Beta virt. eigenvalues --   -0.06997  -0.05318  -0.04815  -0.04523  -0.04425
  Beta virt. eigenvalues --   -0.03022  -0.02965  -0.02584

 Mulliken charges and spin densities:
               1          2
     1  C   -0.136033   0.174746
     2  C   -0.102254   0.251137
     3  C   -0.136031   0.174750
     4  C   -0.102251   0.251143
     5  H    0.163207  -0.009612
     6  H    0.163252  -0.009614
     7  H    0.205900   0.046680
     8  H    0.205925   0.046658
     9  H    0.163251  -0.009614
    10  H    0.163208  -0.009612
    11  H    0.205910   0.046694
    12  H    0.205915   0.046644
 Sum of Mulliken charges =   1.00000   1.00000

 Dipole moment (field-independent basis, Debye):
    X=              0.0000    Y=             -0.0000    Z=             -0.0002  Tot=              0.0002
 N-N= 8.342211042048D+01 E-N=-1.307598468275D+02  KE=-1.443931638791D+01
  Exact polarizability:  43.713  -3.236  45.148   0.426  -0.389  31.626
 Approx polarizability:  25.740  -5.470  28.151   0.343  -0.379  18.293
 Calling FoFJK, ICntrl=    100127 FMM=F ISym2X=0 I1Cent= 0 IOpClX= 1 NMat=1 NMatS=1 NMatT=0.
 Full mass-weighted force constant matrix:
 Low frequencies ----6840.6538 -625.1565 -173.8369  -47.1371   -2.6699  155.7822
 Low frequencies ---  169.5530  182.7988  250.9860
 ******    2 imaginary frequencies (negative Signs) ******
 Diagonal vibrational polarizability:
       77.7497855      49.0045389      18.7087927

                      1                      2                      3
                      A                      A                      A
 Frequencies --  -6840.5734              -571.7017               168.7883
 Red. masses --      4.5816                 2.3957                 1.9251
 Frc consts  --    126.3130                 0.4613                 0.0323
 IR Inten    --      0.0000              1480.6144                16.6297

                      4                      5                      6
                      A                      A                      A
 Frequencies --    499.8806               522.5122               760.9864
 Red. masses --      1.0090                 1.0215                 4.4054
 Frc consts  --      0.1485                 0.1643                 1.5031
 IR Inten    --      0.7007                 0.0003                 0.0000

                      7                      8                      9
                      A                      A                      A
 Frequencies --    798.1008               844.4013               956.2218
 Red. masses --      1.0363                 1.0555                 4.4720
 Frc consts  --      0.3889                 0.4434                 2.4092
 IR Inten    --      0.0000                39.3284                 2.9496

                     10                     11                     12
                      A                      A                      A
 Frequencies --   1053.2380              1065.4139              1065.7479
 Red. masses --      1.0998                 1.4607                 1.3757
 Frc consts  --      0.7188                 0.9769                 0.9206
 IR Inten    --      1.0358                 5.8163                 0.0009

                     13                     14                     15
                      A                      A                      A
 Frequencies --   1084.4736              1093.1230              1200.2869
 Red. masses --      1.4159                 1.1872                 1.3605
 Frc consts  --      0.9811                 0.8358                 1.1549
 IR Inten    --     30.3335                 0.0002                 0.0000

                     16                     17                     18
                      A                      A                      A
 Frequencies --   1229.5875              1272.1470              1328.1107
 Red. masses --      1.2452                 2.2198                 1.0546
 Frc consts  --      1.1092                 2.1166                 1.0960
 IR Inten    --      8.9392                 0.0000                35.4669

                     19                     20                     21
                      A                      A                      A
 Frequencies --   1344.0759              1401.2773              1407.7012
 Red. masses --      1.1632                 1.1348                 1.4330
 Frc consts  --      1.2381                 1.3128                 1.6731
 IR Inten    --      0.0000                27.6297                 0.0000

                     22                     23                     24
                      A                      A                      A
 Frequencies --   2510.2082              3001.7439              3076.3060
 Red. masses --      1.0476                 1.0856                 1.0472
 Frc consts  --      3.8891                 5.7635                 5.8388
 IR Inten    --      0.0041               351.9341               744.5630

                     25                     26                     27
                      A                      A                      A
 Frequencies --   3093.1756              3100.2157              3142.1940
 Red. masses --      1.0996                 1.0959                 1.0446
 Frc consts  --      6.1985                 6.2056                 6.0769
 IR Inten    --    195.7196                 0.0030                 0.0013

                     28                     29                     30
                      A                      A                      A
 Frequencies --   3162.3743              3175.5437              3963.1497
 Red. masses --      1.0554                 1.0546                 1.4427
 Frc consts  --      6.2189                 6.2659                13.3505
 IR Inten    --    202.1448                 0.0013                 0.0251

 - Thermochemistry -
 -------------------
 Temperature   298.150 Kelvin.  Pressure   1.00000 Atm.
 Atom     1 has atomic number  6 and mass  12.00000

 Molecular mass:    56.06260 amu.
 Principal axes and moments of inertia in atomic units:
                           1         2         3
     Eigenvalues --   168.87297 168.87344 290.42359
           X            0.99798  -0.05596  -0.02999
           Y            0.05663   0.99816   0.02182
           Z            0.02872  -0.02347   0.99931
 This molecule is an asymmetric top.
 Rotational symmetry number  1.
 Rotational temperatures (Kelvin)      0.51289     0.51289     0.29823
 Rotational constants (GHZ):          10.68698    10.68694     6.21417
    2 imaginary frequencies ignored.
 Zero-point vibrational energy     283042.3 (Joules/Mol)
                                   67.64874 (Kcal/Mol)
 Warning -- explicit consideration of   3 degrees of freedom as
           vibrations may cause significant error
 Vibrational temperatures:    242.85   719.22   751.78  1094.89  1148.29
          (Kelvin)           1214.90  1375.79  1515.37  1532.89  1533.37
                             1560.31  1572.76  1726.94  1769.10  1830.33
                             1910.85  1933.82  2016.12  2025.37  3611.63
                             4318.83  4426.11  4450.38  4460.51  4520.91
                             4549.95  4568.89  5702.08

 Zero-point correction=                           0.107805 (Hartree/Particle)
 Thermal correction to Energy=                    0.112178
 Thermal correction to Enthalpy=                  0.113122
 Thermal correction to Gibbs Free Energy=         0.080818
 Sum of electronic and zero-point Energies=              0.507078
 Sum of electronic and thermal Energies=                 0.511451
 Sum of electronic and thermal Enthalpies=               0.512395
 Sum of electronic and thermal Free Energies=            0.480091

                     E (Thermal)             CV                S
                      KCal/Mol        Cal/Mol-Kelvin    Cal/Mol-Kelvin
 Total                   70.393             15.222             67.989
 Electronic               0.000              0.000              1.377
 Translational            0.889              2.981             37.993
 Rotational               0.889              2.981             23.631
 Vibrational             68.615              9.261              4.988
 Vibration     1          0.625              1.881              2.449
 Vibration     2          0.855              1.250              0.658
 Vibration     3          0.877              1.200              0.604

 Normal termination of Gaussian 09 at Sat Apr 16 16:11:31 2022.
