 Gaussian 09, Revision D.01,
 Gaussian 09:  AM64L-G09RevD.01 24-Apr-2013

 -----------------------
 #n AM1 Opt=modredundant
 -----------------------

 -------------------------
 Optimisation de geometrie
 -------------------------
 Symbolic Z-matrix:
 Charge =  0 Multiplicity = 1

 SCF Done:  E(RAM1) = -0.182111719359     A.U. after   13 cycles
 SCF Done:  E(RAM1) = -0.184362968095     A.U. after   12 cycles
 SCF Done:  E(RAM1) = -0.185137661604     A.U. after   12 cycles
 SCF Done:  E(RAM1) = -0.185860353460     A.U. after   11 cycles
 SCF Done:  E(RAM1) = -0.186352660334     A.U. after   12 cycles
 SCF Done:  E(RAM1) = -0.186505427531     A.U. after   11 cycles
 SCF Done:  E(RAM1) = -0.186525443968     A.U. after   10 cycles
 SCF Done:  E(RAM1) = -0.186534460940     A.U. after   10 cycles
 SCF Done:  E(RAM1) = -0.186538785970     A.U. after   10 cycles
 SCF Done:  E(RAM1) = -0.186539613850     A.U. after    9 cycles
 Optimization completed.
    -- Stationary point found.
 Optimization completed.
 SCF Done:  E(RAM1) = -0.184223442855     A.U. after   12 cycles
 SCF Done:  E(RAM1) = -0.186130873204     A.U. after   11 cycles
 SCF Done:  E(RAM1) = -0.186183096566     A.U. after   10 cycles
 SCF Done:  E(RAM1) = -0.186183895017     A.U. after    9 cycles
 SCF Done:  E(RAM1) = -0.186184024300     A.U. after    9 cycles
    -- Stationary point found.
 SCF Done:  E(RAM1) = -0.184555178498     A.U. after   11 cycles
 SCF Done:  E(RAM1) = -0.186475392918     A.U. after   11 cycles
 SCF Done:  E(RAM1) = -0.186540376431     A.U. after   11 cycles
 SCF Done:  E(RAM1) = -0.186541130324     A.U. after    9 cycles
 SCF Done:  E(RAM1) = -0.186541166088     A.U. after    8 cycles
 Optimization completed.
    -- Stationary point found.

                         Standard orientation:
 ---------------------------------------------------------------------
 Center     Atomic      Atomic             Coordinates (Angstroms)
 Number     Number       Type             X           Y           Z
 ---------------------------------------------------------------------
      1          6           0        1.312132    0.452068    0.145819
      2          8           0        1.304891   -0.953935   -0.053320
      3          6           0       -0.007771    1.001253   -0.365854
      4          6           0       -1.206089    0.411665    0.359139
      5          8           0       -1.595565   -0.839385   -0.167677
      6          1           0        2.168096    0.910682   -0.418858
      7          1           0        1.436350    0.677051    1.239953
      8          1           0        2.144505   -1.288240    0.281117
      9          1           0       -0.101179    0.780391   -1.461323
     10          1           0        0.001850    2.112789   -0.228474
     11          1           0       -2.109021    1.066281    0.220019
     12          1           0       -0.986169    0.312229    1.456598
     13          1           0       -0.818676   -1.414546   -0.155680
 ---------------------------------------------------------------------

 The electronic state is 1-A.
 Alpha  occ. eigenvalues --   -1.43816  -1.36759  -1.19208  -0.96741  -0.81453
 Alpha  occ. eigenvalues --   -0.69350  -0.65985  -0.57825  -0.57679  -0.57226
 Alpha  occ. eigenvalues --   -0.51662  -0.48657  -0.46903  -0.43060  -0.41194
 Alpha  occ. eigenvalues --   -0.39512
 Alpha virt. eigenvalues --    0.11572   0.13140   0.13620   0.14185   0.15378
 Alpha virt. eigenvalues --    0.15758   0.16028   0.16854   0.17707   0.18142
 Alpha virt. eigenvalues --    0.21924   0.24953

 Mulliken charges:
               1
     1  C   -0.020701
     2  O   -0.342366
     3  C   -0.204716
     4  C   -0.008173
     5  O   -0.334235
     6  H    0.064947
     7  H    0.062055
     8  H    0.205167
     9  H    0.109601
    10  H    0.093146
    11  H    0.098320
    12  H    0.059009
    13  H    0.217945
 Sum of Mulliken charges =  -0.00000

 Dipole moment (field-independent basis, Debye):
    X=              2.6106    Y=              1.4911    Z=              1.0413  Tot=              3.1817
 N-N= 1.402748287921D+02 E-N=-2.369191801341D+02  KE=-2.086301431000D+01
 1\1\GINC-GTX1080DELTA\Scan\RAM1\ZDO\C3H8O2\MVEROT\18-Apr-2022\0\\#n AM
 1 Opt=modredundant\\Optimisation de geometrie\\0,1\C,1.3956327421,2.40
 22825343,0.6725472094\O,1.3737015092,3.1420846075,1.8844734374\C,2.670
 4657585,1.5776565197,0.6538287853\C,2.7554206594,0.6069921978,1.819928
 6029\O,3.2426879563,1.2164574471,2.9969913043\H,1.3764586419,3.1067543
 095,-0.2022176613\H,0.4925361069,1.7351790875,0.6218900731\H,0.5576980
 299,3.6546252488,1.8847055497\H,3.5563969661,2.264351762,0.6874702327\
 H,2.7011334914,1.0073189707,-0.3096296068\H,3.4985375899,-0.2066896864
 ,1.598885638\H,1.7494423028,0.1465281344,2.016523425\H,2.6860882456,1.

 Normal termination of Gaussian 09 at Mon Apr 18 00:05:21 2022.
