 Gaussian 09, Revision D.01,
 Gaussian 09:  AM64L-G09RevD.01 24-Apr-2013

 ---------------
 #n AM1 Opt freq
 ---------------

 -------------------------
 Optimisation de geometrie
 -------------------------
 Symbolic Z-matrix:
 Charge =  0 Multiplicity = 1

 SCF Done:  E(RAM1) =  0.616886858737E-03 A.U. after   11 cycles
 SCF Done:  E(RAM1) = -0.282121390704E-02 A.U. after   10 cycles
 SCF Done:  E(RAM1) = -0.349914243851E-02 A.U. after   11 cycles
 SCF Done:  E(RAM1) = -0.363169851597E-02 A.U. after   10 cycles
 SCF Done:  E(RAM1) = -0.363290606779E-02 A.U. after    8 cycles
 Optimization completed.
    -- Stationary point found.
 Normal termination of Gaussian 09 at Sat Apr 16 11:42:56 2022.

 -------------------------------------------------------------
 #N Geom=AllCheck Guess=TCheck SCRF=Check GenChk RAM1/ZDO Freq
 -------------------------------------------------------------

 Structure from the checkpoint file:  "2-butene-Z-opt.chk"
 -------------------------
 Optimisation de geometrie
 -------------------------
 Charge =  0 Multiplicity = 1

                         Standard orientation:
 ---------------------------------------------------------------------
 Center     Atomic      Atomic             Coordinates (Angstroms)
 Number     Number       Type             X           Y           Z
 ---------------------------------------------------------------------
      1          6           0        0.667836    0.657420    0.000006
      2          6           0       -0.667835    0.657420    0.000004
      3          6           0       -1.559655   -0.516371   -0.000001
      4          6           0        1.559654   -0.516372   -0.000003
      5          1           0        1.203237    1.624550   -0.000017
      6          1           0       -1.203233    1.624552   -0.000020
      7          1           0       -1.002453   -1.483927    0.000275
      8          1           0       -2.217644   -0.493316    0.905569
      9          1           0       -2.217261   -0.493597   -0.905856
     10          1           0        2.217086   -0.493734    0.905982
     11          1           0        1.002449   -1.483926   -0.000529
     12          1           0        2.217819   -0.493184   -0.905441
 ---------------------------------------------------------------------

 SCF Done:  E(RAM1) = -0.363290606782E-02 A.U. after    2 cycles

 The electronic state is 1-A.
 Alpha  occ. eigenvalues --   -1.32457  -1.11573  -0.95262  -0.70199  -0.60469
 Alpha  occ. eigenvalues --   -0.52827  -0.52773  -0.49675  -0.47784  -0.45073
 Alpha  occ. eigenvalues --   -0.42585  -0.35061
 Alpha virt. eigenvalues --    0.04754   0.14431   0.15705   0.16337   0.16608
 Alpha virt. eigenvalues --    0.16720   0.17289   0.18064   0.18345   0.19087
 Alpha virt. eigenvalues --    0.21082   0.22297

 Mulliken charges:
               1
     1  C   -0.167627
     2  C   -0.167628
     3  C   -0.185027
     4  C   -0.185028
     5  H    0.113998
     6  H    0.113998
     7  H    0.077736
     8  H    0.080459
     9  H    0.080462
    10  H    0.080463
    11  H    0.077736
    12  H    0.080458
 Sum of Mulliken charges =  -0.00000

 Dipole moment (field-independent basis, Debye):
    X=             -0.0000    Y=             -0.1664    Z=             -0.0000  Tot=              0.1664
 N-N= 7.976344368877D+01 E-N=-1.288090078659D+02  KE=-1.481037627494D+01
  Exact polarizability:  56.150  -0.000  30.605   0.001  -0.000  20.881
 Approx polarizability:  37.107   0.000  19.022   0.001  -0.000  13.103
 Calling FoFJK, ICntrl=    100127 FMM=F ISym2X=0 I1Cent= 0 IOpClX= 0 NMat=1 NMatS=1 NMatT=0.
 Full mass-weighted force constant matrix:
 Low frequencies ---  -50.2770  -24.4764   -9.6218   -1.1571   -0.0006    0.0233
 Low frequencies ---    0.0967    1.4800  318.1084
 ******    2 imaginary frequencies (negative Signs) ******
 Diagonal vibrational polarizability:
        0.4628668       0.1433566      30.7805350

                      1                      2                      3
                      A                      A                      A
 Frequencies --    -50.2423               -23.5411               318.1084
 Red. masses --      1.0403                 1.0545                 2.7750
 Frc consts  --      0.0015                 0.0003                 0.1655
 IR Inten    --      0.0000                 0.5886                 0.1499

                      4                      5                      6
                      A                      A                      A
 Frequencies --    361.0084               604.4260               760.7775
 Red. masses --      2.0249                 2.4637                 1.1006
 Frc consts  --      0.1555                 0.5303                 0.3753
 IR Inten    --      0.0000                 3.2360                43.9139

                      7                      8                      9
                      A                      A                      A
 Frequencies --    944.7401              1007.3168              1074.2309
 Red. masses --      1.1545                 1.3665                 1.4306
 Frc consts  --      0.6071                 0.8170                 0.9726
 IR Inten    --      0.0000                 1.5393                 4.1470

                     10                     11                     12
                      A                      A                      A
 Frequencies --   1086.9619              1087.6511              1150.4087
 Red. masses --      1.6531                 1.4574                 1.7590
 Frc consts  --      1.1508                 1.0158                 1.3716
 IR Inten    --      0.0000                 4.8737                 0.2474

                     13                     14                     15
                      A                      A                      A
 Frequencies --   1230.4433              1310.7828              1378.0755
 Red. masses --      1.4002                 1.2448                 1.0804
 Frc consts  --      1.2490                 1.2601                 1.2088
 IR Inten    --      0.0526                 0.1115                 2.2815

                     16                     17                     18
                      A                      A                      A
 Frequencies --   1381.7120              1383.3044              1386.4772
 Red. masses --      1.0667                 1.1000                 1.0661
 Frc consts  --      1.1999                 1.2402                 1.2075
 IR Inten    --      0.0000                 0.2778                 3.9238

                     19                     20                     21
                      A                      A                      A
 Frequencies --   1401.0767              1459.2885              1479.8424
 Red. masses --      1.2385                 1.2868                 2.8310
 Frc consts  --      1.4324                 1.6146                 3.6527
 IR Inten    --      0.4372                 1.7767                 0.3666

                     22                     23                     24
                      A                      A                      A
 Frequencies --   1909.2460              3040.8608              3040.8712
 Red. masses --     10.0030                 1.0890                 1.0889
 Frc consts  --     21.4835                 5.9329                 5.9326
 IR Inten    --      0.5998                 0.0219                 1.7408

                     25                     26                     27
                      A                      A                      A
 Frequencies --   3054.8504              3054.8669              3136.9249
 Red. masses --      1.0890                 1.0882                 1.0579
 Frc consts  --      5.9877                 5.9836                 6.1335
 IR Inten    --      0.6215                 0.0612                22.0427

                     28                     29                     30
                      A                      A                      A
 Frequencies --   3145.7985              3151.4721              3157.4680
 Red. masses --      1.0416                 1.0430                 1.0686
 Frc consts  --      6.0731                 6.1035                 6.2770
 IR Inten    --      1.5036                 2.8659                 7.7199

 - Thermochemistry -
 -------------------
 Temperature   298.150 Kelvin.  Pressure   1.00000 Atm.
 Atom     1 has atomic number  6 and mass  12.00000

 Molecular mass:    56.06260 amu.
 Principal axes and moments of inertia in atomic units:
                           1         2         3
     Eigenvalues --   109.87673 346.95614 433.21433
           X            1.00000  -0.00000   0.00000
           Y            0.00000   1.00000  -0.00000
           Z           -0.00000   0.00000   1.00000
 This molecule is an asymmetric top.
 Rotational symmetry number  1.
 Rotational temperatures (Kelvin)      0.78828     0.24964     0.19993
 Rotational constants (GHZ):          16.42514     5.20164     4.16593
    2 imaginary frequencies ignored.
 Zero-point vibrational energy     284107.1 (Joules/Mol)
                                   67.90322 (Kcal/Mol)
 Warning -- explicit consideration of   3 degrees of freedom as
           vibrations may cause significant error
 Vibrational temperatures:    457.69   519.41   869.63  1094.59  1359.27
          (Kelvin)           1449.30  1545.58  1563.89  1564.89  1655.18
                             1770.33  1885.92  1982.74  1987.97  1990.26
                             1994.83  2015.83  2099.59  2129.16  2746.98
                             4375.11  4375.13  4395.24  4395.27  4513.33
                             4526.10  4534.26  4542.89

 Zero-point correction=                           0.108211 (Hartree/Particle)
 Thermal correction to Energy=                    0.112297
 Thermal correction to Enthalpy=                  0.113242
 Thermal correction to Gibbs Free Energy=         0.081846
 Sum of electronic and zero-point Energies=              0.104578
 Sum of electronic and thermal Energies=                 0.108664
 Sum of electronic and thermal Enthalpies=               0.109609
 Sum of electronic and thermal Free Energies=            0.078214

                     E (Thermal)             CV                S
                      KCal/Mol        Cal/Mol-Kelvin    Cal/Mol-Kelvin
 Total                   70.468             13.897             66.076
 Electronic               0.000              0.000              0.000
 Translational            0.889              2.981             37.993
 Rotational               0.889              2.981             24.316
 Vibrational             68.690              7.935              3.767
 Vibration     1          0.705              1.639              1.320
 Vibration     2          0.735              1.553              1.118
 Vibration     3          0.963              1.022              0.442

 Optimization completed.
    -- Stationary point found.
 Normal termination of Gaussian 09 at Sat Apr 16 11:42:58 2022.
