 Gaussian 09, Revision D.01,
 Gaussian 09:  AM64L-G09RevD.01 24-Apr-2013

 --------------------
 # hf/6-31G* opt freq
 --------------------

 -------------------------
 Optimisation de geometrie
 -------------------------
 Symbolic Z-matrix:
 Charge =  0 Multiplicity = 1

 SCF Done:  E(RHF) =  -118.263007531     A.U. after   10 cycles
 SCF Done:  E(RHF) =  -118.263642353     A.U. after    9 cycles
 SCF Done:  E(RHF) =  -118.263651025     A.U. after    7 cycles
 Optimization completed.
    -- Stationary point found.
 Normal termination of Gaussian 09 at Sat Apr 16 12:15:11 2022.

 -----------------------------------------------------------------
 #N Geom=AllCheck Guess=TCheck SCRF=Check GenChk RHF/6-31G(d) Freq
 -----------------------------------------------------------------

 Structure from the checkpoint file:  "propane-opt.chk"
 -------------------------
 Optimisation de geometrie
 -------------------------
 Charge =  0 Multiplicity = 1

                         Standard orientation:
 ---------------------------------------------------------------------
 Center     Atomic      Atomic             Coordinates (Angstroms)
 Number     Number       Type             X           Y           Z
 ---------------------------------------------------------------------
      1          6           0       -1.273144   -0.259795   -0.000001
      2          6           0       -0.000001    0.585656   -0.000002
      3          6           0        1.273144   -0.259794   -0.000001
      4          1           0       -1.317561   -0.899938    0.876770
      5          1           0       -1.317671   -0.899776   -0.876884
      6          1           0       -2.162062    0.363563    0.000114
      7          1           0       -0.000002    1.237958   -0.869785
      8          1           0       -0.000002    1.237936    0.869800
      9          1           0        2.162061    0.363566    0.000114
     10          1           0        1.317677   -0.899778   -0.876882
     11          1           0        1.317563   -0.899935    0.876771
 ---------------------------------------------------------------------

 SCF Done:  E(RHF) =  -118.263651025     A.U. after    1 cycles

 The electronic state is 1-A.
 Alpha  occ. eigenvalues --  -11.21579 -11.20760 -11.20756  -1.05286  -0.92670
 Alpha  occ. eigenvalues --   -0.80192  -0.62461  -0.59747  -0.55089  -0.53242
 Alpha  occ. eigenvalues --   -0.47550  -0.47480  -0.46883
 Alpha virt. eigenvalues --    0.23402   0.29587   0.29905   0.29972   0.31866
 Alpha virt. eigenvalues --    0.34268   0.35119   0.35497   0.39341   0.44283
 Alpha virt. eigenvalues --    0.71157   0.71441   0.74527   0.76181   0.78447

 Mulliken charges:
               1
     1  C   -0.476237
     2  C   -0.301718
     3  C   -0.476237
     4  H    0.155758
     5  H    0.155759
     6  H    0.160268
     7  H    0.155312
     8  H    0.155310
     9  H    0.160268
    10  H    0.155759
    11  H    0.155758
 Sum of Mulliken charges =   0.00000

 Dipole moment (field-independent basis, Debye):
    X=              0.0000    Y=              0.0658    Z=              0.0000  Tot=              0.0658
 Quadrupole moment (field-independent basis, Debye-Ang):
   XX=            -22.2897   YY=            -21.9163   ZZ=            -21.5119
   XY=             -0.0000   XZ=             -0.0000   YZ=             -0.0000

  Exact polarizability:  34.323  -0.000  31.499  -0.000   0.000  31.045
 Approx polarizability:  26.219  -0.000  26.947  -0.000  -0.000  27.633

                      1                      2                      3
                      A                      A                      A
 Frequencies --    232.7394               292.5597               392.3905
 Red. masses --      1.0271                 1.1370                 2.0830
 Frc consts  --      0.0328                 0.0573                 0.1890
 IR Inten    --      0.0000                 0.0000                 0.0279
 Raman Activ --      0.0048                 0.0129                 0.3529

                      4                      5                      6
                      A                      A                      A
 Frequencies --    807.8456               930.1120               984.8380
 Red. masses --      1.0797                 2.5841                 1.0960
 Frc consts  --      0.4151                 1.3171                 0.6263
 IR Inten    --      1.8752                 0.4623                 0.0000
 Raman Activ --      0.1649                14.4837                 0.0272

                      7                      8                      9
                      A                      A                      A
 Frequencies --   1013.8710              1127.9962              1285.7838
 Red. masses --      1.1971                 2.3267                 1.7235
 Frc consts  --      0.7250                 1.7443                 1.6788
 IR Inten    --      1.1950                 0.4435                 0.9089
 Raman Activ --      0.6466                 9.0262                 4.3016

                     10                     11                     12
                      A                      A                      A
 Frequencies --   1330.7811              1435.5364              1503.2964
 Red. masses --      1.6464                 1.1240                 1.3735
 Frc consts  --      1.7179                 1.3647                 1.8288
 IR Inten    --      0.0201                 0.0000                 3.7128
 Raman Activ --      0.8020                12.2415                 0.0360

                     13                     14                     15
                      A                      A                      A
 Frequencies --   1561.5287              1571.4067              1634.6037
 Red. masses --      1.3371                 1.2353                 1.0415
 Frc consts  --      1.9210                 1.7972                 1.6395
 IR Inten    --      2.9455                 1.5189                 0.0000
 Raman Activ --      2.3505                 1.5159                37.4257

                     16                     17                     18
                      A                      A                      A
 Frequencies --   1635.8230              1642.3666              1652.3634
 Red. masses --      1.0464                 1.0548                 1.0419
 Frc consts  --      1.6498                 1.6763                 1.6761
 IR Inten    --      0.1725                 0.9381                 9.1816
 Raman Activ --     42.9580                 0.2139                 0.1284

                     19                     20                     21
                      A                      A                      A
 Frequencies --   1658.4108              3193.3342              3194.1829
 Red. masses --      1.0876                 1.0362                 1.0514
 Frc consts  --      1.7624                 6.2254                 6.3204
 IR Inten    --      2.1408                44.7582                57.1344
 Raman Activ --      3.6717                 3.2444                24.6562

                     22                     23                     24
                      A                      A                      A
 Frequencies --   3200.9537              3217.2340              3249.8742
 Red. masses --      1.0469                 1.1038                 1.1036
 Frc consts  --      6.3203                 6.7313                 6.8672
 IR Inten    --      0.3526                 4.7754                 0.0000
 Raman Activ --    289.2345               167.5251                 7.2244

                     25                     26                     27
                      A                      A                      A
 Frequencies --   3258.6938              3262.4512              3264.5663
 Red. masses --      1.1030                 1.1015                 1.1039
 Frc consts  --      6.9009                 6.9078                 6.9319
 IR Inten    --     43.3003                81.3847               147.6412
 Raman Activ --     63.1010                88.1891                32.4220

 - Thermochemistry -
 -------------------
 Temperature   298.150 Kelvin.  Pressure   1.00000 Atm.
 Atom     1 has atomic number  6 and mass  12.00000

 Molecular mass:    44.06260 amu.
 Principal axes and moments of inertia in atomic units:
                           1         2         3
     Eigenvalues --    60.62341 214.07372 241.66987
           X            1.00000  -0.00000  -0.00000
           Y            0.00000   1.00000   0.00000
           Z            0.00000  -0.00000   1.00000
 This molecule is an asymmetric top.
 Rotational symmetry number  1.
 Rotational temperatures (Kelvin)      1.42872     0.40460     0.35840
 Rotational constants (GHZ):          29.76971     8.43047     7.46780
 Zero-point vibrational energy     290307.0 (Joules/Mol)
                                   69.38504 (Kcal/Mol)
 Warning -- explicit consideration of   3 degrees of freedom as
           vibrations may cause significant error
 Vibrational temperatures:    334.86   420.93   564.56  1162.31  1338.22
          (Kelvin)           1416.96  1458.73  1622.93  1849.95  1914.69
                             2065.41  2162.91  2246.69  2260.90  2351.83
                             2353.58  2363.00  2377.38  2386.08  4594.49
                             4595.71  4605.45  4628.88  4675.84  4688.53
                             4693.93  4696.98

 Zero-point correction=                           0.110572 (Hartree/Particle)
 Thermal correction to Energy=                    0.114937
 Thermal correction to Enthalpy=                  0.115881
 Thermal correction to Gibbs Free Energy=         0.085023
 Sum of electronic and zero-point Energies=           -118.153079
 Sum of electronic and thermal Energies=              -118.148714
 Sum of electronic and thermal Enthalpies=            -118.147770
 Sum of electronic and thermal Free Energies=         -118.178628

                     E (Thermal)             CV                S
                      KCal/Mol        Cal/Mol-Kelvin    Cal/Mol-Kelvin
 Total                   72.124             13.838             64.947
 Electronic               0.000              0.000              0.000
 Translational            0.889              2.981             37.275
 Rotational               0.889              2.981             22.666
 Vibrational             70.346              7.876              5.006
 Vibration     1          0.653              1.791              1.858
 Vibration     2          0.688              1.688              1.459
 Vibration     3          0.760              1.486              0.991

 Optimization completed.
    -- Stationary point found.
 Normal termination of Gaussian 09 at Sat Apr 16 12:15:16 2022.
