 Gaussian 09, Revision D.01,
 Gaussian 09:  AM64L-G09RevD.01 24-Apr-2013

 ----------
 #n PM6 Opt
 ----------

 -------------------------
 Optimisation de geometrie
 -------------------------
 Symbolic Z-matrix:
 Charge =  0 Multiplicity = 1

 SCF Done:  E(RPM6) = -0.149191836621     A.U. after   13 cycles
 SCF Done:  E(RPM6) = -0.151911657541     A.U. after   11 cycles
 SCF Done:  E(RPM6) = -0.152226945502     A.U. after   10 cycles
 SCF Done:  E(RPM6) = -0.152257007517     A.U. after    9 cycles
 SCF Done:  E(RPM6) = -0.152264156019     A.U. after    9 cycles
 SCF Done:  E(RPM6) = -0.152267420441     A.U. after    9 cycles
 SCF Done:  E(RPM6) = -0.152270009298     A.U. after    9 cycles
 SCF Done:  E(RPM6) = -0.152270610564     A.U. after    8 cycles
 Optimization completed.
    -- Stationary point found.

                         Standard orientation:
 ---------------------------------------------------------------------
 Center     Atomic      Atomic             Coordinates (Angstroms)
 Number     Number       Type             X           Y           Z
 ---------------------------------------------------------------------
      1          6           0       -0.559033   -0.522869    0.067388
      2          8           0       -1.829533    0.108945   -0.118095
      3          6           0        0.559016    0.523313   -0.063840
      4          8           0        1.829898   -0.109677    0.114734
      5          1           0       -0.528933   -1.271768   -0.746133
      6          1           0       -0.522476   -1.042679    1.040289
      7          1           0       -2.047891    0.671621    0.652310
      8          1           0        0.532310    1.269313    0.752430
      9          1           0        0.519024    1.046478   -1.034851
     10          1           0        2.045141   -0.669777   -0.658442
 ---------------------------------------------------------------------

 The electronic state is 1-A.
 Alpha  occ. eigenvalues --   -1.12093  -1.09796  -0.95493  -0.83394  -0.68098
 Alpha  occ. eigenvalues --   -0.65919  -0.59988  -0.55799  -0.52375  -0.49755
 Alpha  occ. eigenvalues --   -0.44082  -0.42408  -0.38362
 Alpha virt. eigenvalues --    0.06944   0.10544   0.12099   0.16770   0.18226
 Alpha virt. eigenvalues --    0.18850   0.20095   0.20432   0.20766

 Mulliken charges:
               1
     1  C   -0.056152
     2  O   -0.532732
     3  C   -0.056195
     4  O   -0.532683
     5  H    0.150543
     6  H    0.132042
     7  H    0.306270
     8  H    0.150491
     9  H    0.132133
    10  H    0.306284
 Sum of Mulliken charges =  -0.00000

 Dipole moment (field-independent basis, Debye):
    X=             -0.0052    Y=              0.0056    Z=              0.0042  Tot=              0.0087
 N-N= 9.844022263611D+01 E-N=-1.657053148824D+02  KE=-1.392844268095D+01
 1\1\GINC-GTX1080DELTA\FOpt\RPM6\ZDO\C2H6O2\MVEROT\17-Apr-2022\0\\#n PM
 6 Opt\\Optimisation de geometrie\\0,1\C,2.2703595823,2.3151151028,2.11
 37774925\O,1.1951457347,2.7454081401,2.9543281526\C,1.8516841531,1.047
 4350606,1.3525617466\O,2.9293218077,0.6131263916,0.5172311455\H,3.0891
 58778,2.1208797582,2.8316995903\H,2.5741845412,3.1243154395,1.42751192
 26\H,0.4672499998,3.1170653567,2.4159538675\H,1.0364305243,1.242455093
 8,0.6308582143\H,1.5430733029,0.2401565329,2.0390197529\H,3.6540815759
 ,0.2406331238,1.0592781152\\Version=AM64L-G09RevD.01\State=1-A\HF=-0.1
 522706\RMSD=7.094e-09\RMSF=2.460e-05\Dipole=-0.0031276,0.0013951,-0.00

 Normal termination of Gaussian 09 at Sun Apr 17 23:36:30 2022.
