 Gaussian 09, Revision D.01,
 Gaussian 09:  AM64L-G09RevD.01 24-Apr-2013

 -------------------------
 #n AM1 Opt symmetry=loose
 -------------------------

 -------------------------------------------------------
 Optimisation of anthraquinone using the AM1 hamiltonian
 -------------------------------------------------------
 Symbolic Z-matrix:
 Charge =  0 Multiplicity = 1

 SCF Done:  E(RAM1) = -0.713262156364E-02 A.U. after   15 cycles
 SCF Done:  E(RAM1) = -0.982616060458E-02 A.U. after   12 cycles
 SCF Done:  E(RAM1) = -0.993523603279E-02 A.U. after   11 cycles
 SCF Done:  E(RAM1) = -0.995678289462E-02 A.U. after   11 cycles
 SCF Done:  E(RAM1) = -0.995524946848E-02 A.U. after   11 cycles
 SCF Done:  E(RAM1) = -0.996792411149E-02 A.U. after   10 cycles
 SCF Done:  E(RAM1) = -0.996970149322E-02 A.U. after   11 cycles
 Optimization completed.
    -- Stationary point found.

                         Standard orientation:
 ---------------------------------------------------------------------
 Center     Atomic      Atomic             Coordinates (Angstroms)
 Number     Number       Type             X           Y           Z
 ---------------------------------------------------------------------
      1          6           0        0.000000    1.473627    0.000247
      2          6           0       -1.261006    0.702256    0.000028
      3          6           0        1.261007    0.702257    0.000027
      4          8           0       -0.000000    2.713225   -0.000331
      5          6           0        0.000000   -1.473631   -0.000403
      6          6           0        1.261007   -0.702257   -0.000091
      7          8           0       -0.000001   -2.713228    0.000293
      8          6           0       -1.261007   -0.702257   -0.000090
      9          6           0       -2.477828    1.394254    0.000106
     10          6           0        2.477829   -1.394254   -0.000082
     11          6           0       -2.477829   -1.394254   -0.000083
     12          6           0        2.477829    1.394255    0.000106
     13          6           0       -3.686086    0.696727    0.000103
     14          6           0       -3.686087   -0.696724    0.000008
     15          6           0        3.686086    0.696726    0.000102
     16          6           0        3.686086   -0.696725    0.000008
     17          1           0       -2.466629    2.497116    0.000243
     18          1           0        2.466631   -2.497116   -0.000220
     19          1           0       -2.466636   -2.497116   -0.000224
     20          1           0        2.466634    2.497117    0.000244
     21          1           0       -4.637347    1.250177    0.000193
     22          1           0       -4.637349   -1.250172   -0.000014
     23          1           0        4.637347    1.250176    0.000190
     24          1           0        4.637348   -1.250174   -0.000015
 ---------------------------------------------------------------------

 The electronic state is 1-A.
 Alpha  occ. eigenvalues --   -1.53404  -1.45287  -1.44894  -1.39622  -1.25058
 Alpha  occ. eigenvalues --   -1.18162  -1.17407  -1.15541  -0.99329  -0.94037
 Alpha  occ. eigenvalues --   -0.89134  -0.84264  -0.80662  -0.74623  -0.70236
 Alpha  occ. eigenvalues --   -0.65545  -0.62653  -0.61165  -0.59784  -0.59592
 Alpha  occ. eigenvalues --   -0.58965  -0.55644  -0.55189  -0.54768  -0.54719
 Alpha  occ. eigenvalues --   -0.54271  -0.50926  -0.49020  -0.48417  -0.48294
 Alpha  occ. eigenvalues --   -0.46519  -0.45553  -0.41461  -0.39606  -0.37854
 Alpha  occ. eigenvalues --   -0.37402  -0.37398  -0.37204
 Alpha virt. eigenvalues --   -0.05121  -0.01330  -0.00643   0.00173   0.04918
 Alpha virt. eigenvalues --    0.05284   0.08603   0.09505   0.09828   0.10541
 Alpha virt. eigenvalues --    0.12279   0.12771   0.13074   0.13215   0.13778

 Mulliken charges:
               1
     1  C    0.304971
     2  C   -0.107635
     3  C   -0.107634
     4  O   -0.286376
     5  C    0.304971
     6  C   -0.107635
     7  O   -0.286376
     8  C   -0.107634
     9  C   -0.087080
    10  C   -0.087081
    11  C   -0.087081
    12  C   -0.087080
    13  C   -0.116827
    14  C   -0.116827
    15  C   -0.116827
    16  C   -0.116827
    17  H    0.160460
    18  H    0.160460
    19  H    0.160460
    20  H    0.160460
    21  H    0.141785
    22  H    0.141785
    23  H    0.141785
    24  H    0.141785
 Sum of Mulliken charges =  -0.00000

 Dipole moment (field-independent basis, Debye):
    X=              0.0000    Y=             -0.0000    Z=             -0.0000  Tot=              0.0000
 N-N= 5.248945713535D+02 E-N=-9.411901763582D+02  KE=-5.234674794165D+01
 1\1\GINC-GTX1080DELTA\FOpt\RAM1\ZDO\C14H8O2\MVEROT\11-Apr-2022\0\\#n A
 M1 Opt symmetry=loose\\Optimisation of anthraquinone using the AM1 ham
 iltonian\\0,1\C,-0.6706806475,-1.2616237589,0.1040448098\C,-2.07423080
 38,-0.8136611566,-0.0164814736\C,0.3732578097,-0.2150921128,0.09336290
 23\O,-0.38178967,-2.4623875153,0.2103966317\C,-1.3576732133,1.59344981
 06,-0.1468030926\C,0.0458836823,1.14547758,-0.0263690077\O,-1.64655814
 41,2.7942042752,-0.2532720791\C,-2.4016047902,0.5469076491,-0.13621318
 38\C,-3.0937987696,-1.7728076513,-0.0105073248\C,1.0654575523,2.104616
 6578,-0.0324296717\C,-3.7437623819,0.928450661,-0.2482668187\C,1.71542

 Normal termination of Gaussian 09 at Mon Apr 11 20:59:18 2022.
