 Gaussian 09, Revision D.01,
 Gaussian 09:  AM64L-G09RevD.01 24-Apr-2013

 ---------------
 # hf/6-31G* opt
 ---------------

 -------------------------
 Optimisation de geometrie
 -------------------------
 Symbolic Z-matrix:
 Charge =  0 Multiplicity = 1

 SCF Done:  E(RHF) =  -156.096392470     A.U. after    9 cycles
 SCF Done:  E(RHF) =  -156.097189662     A.U. after    8 cycles
 SCF Done:  E(RHF) =  -156.097200964     A.U. after    7 cycles
 SCF Done:  E(RHF) =  -156.097201018     A.U. after    7 cycles
 SCF Done:  E(RHF) =  -156.097201228     A.U. after    6 cycles
 Optimization completed.
    -- Stationary point found.

                         Standard orientation:
 ---------------------------------------------------------------------
 Center     Atomic      Atomic             Coordinates (Angstroms)
 Number     Number       Type             X           Y           Z
 ---------------------------------------------------------------------
      1          6           0        0.497814    0.956804   -0.123887
      2          6           0        0.956805   -0.497815    0.123887
      3          6           0       -0.497815   -0.956803   -0.123886
      4          6           0       -0.956804    0.497814    0.123886
      5          1           0        0.653497    1.256023   -1.155093
      6          1           0        0.899560    1.728964    0.522352
      7          1           0        1.256025   -0.653494    1.155093
      8          1           0        1.728963   -0.899562   -0.522353
      9          1           0       -0.899564   -1.728964    0.522350
     10          1           0       -0.653495   -1.256021   -1.155093
     11          1           0       -1.256020    0.653492    1.155094
     12          1           0       -1.728968    0.899562   -0.522347
 ---------------------------------------------------------------------

 The electronic state is 1-A.
 Alpha  occ. eigenvalues --  -11.21302 -11.21247 -11.21247 -11.21193  -1.12257
 Alpha  occ. eigenvalues --   -0.89258  -0.89258  -0.74857  -0.64881  -0.64041
 Alpha  occ. eigenvalues --   -0.53597  -0.53597  -0.48275  -0.45054  -0.43366
 Alpha  occ. eigenvalues --   -0.43366
 Alpha virt. eigenvalues --    0.23678   0.24987   0.28855   0.28855   0.33555
 Alpha virt. eigenvalues --    0.35170   0.35170   0.36848   0.36848   0.39372
 Alpha virt. eigenvalues --    0.43502   0.50773   0.71251   0.72626   0.75457

 Mulliken charges:
               1
     1  C   -0.325794
     2  C   -0.325794
     3  C   -0.325794
     4  C   -0.325794
     5  H    0.163177
     6  H    0.162617
     7  H    0.163177
     8  H    0.162617
     9  H    0.162617
    10  H    0.163177
    11  H    0.163177
    12  H    0.162617
 Sum of Mulliken charges =  -0.00000

 Dipole moment (field-independent basis, Debye):
    X=              0.0000    Y=             -0.0000    Z=             -0.0000  Tot=              0.0000
 Quadrupole moment (field-independent basis, Debye-Ang):
   XX=            -27.2717   YY=            -27.2718   ZZ=            -25.9240
   XY=              0.0000   XZ=             -0.0000   YZ=              0.0000

 Normal termination of Gaussian 09 at Sat Apr 16 16:31:19 2022.
