 Gaussian 09, Revision D.01,
 Gaussian 09:  AM64L-G09RevD.01 24-Apr-2013

 ----------
 #n AM1 Opt
 ----------

 ---------------------
 Geometry optimization
 ---------------------
 Symbolic Z-matrix:
 Charge =  0 Multiplicity = 1

 SCF Done:  E(RAM1) =  0.238359094613     A.U. after   15 cycles
 SCF Done:  E(RAM1) =  0.178850649534     A.U. after   13 cycles
 SCF Done:  E(RAM1) =  0.163666116571     A.U. after   14 cycles
 SCF Done:  E(RAM1) =  0.160679773352     A.U. after   13 cycles
 SCF Done:  E(RAM1) =  0.159206239123     A.U. after   13 cycles
 SCF Done:  E(RAM1) =  0.159156548545     A.U. after   12 cycles
 SCF Done:  E(RAM1) =  0.161661132713     A.U. after   14 cycles
 SCF Done:  E(RAM1) =  0.159150442553     A.U. after    9 cycles
 SCF Done:  E(RAM1) =  0.159147470516     A.U. after   10 cycles
 Optimization completed.
    -- Stationary point found.

                         Standard orientation:
 ---------------------------------------------------------------------
 Center     Atomic      Atomic             Coordinates (Angstroms)
 Number     Number       Type             X           Y           Z
 ---------------------------------------------------------------------
      1          6           0        1.814259   -0.165231   -0.000006
      2          6           0        2.676579   -1.284597   -0.000040
      3          6           0        2.375707    1.127381    0.000035
      4          7           0        0.408540   -0.460161   -0.000013
      5          6           0        4.056092   -1.102455   -0.000032
      6          6           0        3.758770    1.291219    0.000044
      7          6           0        4.601737    0.181121    0.000010
      8          7           0       -0.408595    0.460331   -0.000010
      9          6           0       -1.814279    0.165324   -0.000005
     10          6           0       -4.601714   -0.181265    0.000010
     11          6           0       -4.056181    1.102358   -0.000033
     12          6           0       -3.758642   -1.291290    0.000044
     13          6           0       -2.676682    1.284614   -0.000040
     14          6           0       -2.375601   -1.127325    0.000035
     15          1           0        2.262008   -2.305259   -0.000074
     16          1           0        1.729591    2.019495    0.000061
     17          1           0        4.719153   -1.980639   -0.000059
     18          1           0        4.185756    2.305330    0.000077
     19          1           0        5.693321    0.316343    0.000017
     20          1           0       -5.693286   -0.316591    0.000016
     21          1           0       -4.719309    1.980492   -0.000060
     22          1           0       -4.185540   -2.305439    0.000076
     23          1           0       -2.262197    2.305312   -0.000074
     24          1           0       -1.729380   -2.019362    0.000062
 ---------------------------------------------------------------------

 The electronic state is 1-A.
 Alpha  occ. eigenvalues --   -1.47795  -1.44531  -1.39244  -1.20063  -1.16193
 Alpha  occ. eigenvalues --   -1.16183  -1.12178  -0.96566  -0.86636  -0.85849
 Alpha  occ. eigenvalues --   -0.83975  -0.77258  -0.67584  -0.64576  -0.62116
 Alpha  occ. eigenvalues --   -0.60782  -0.57775  -0.56468  -0.56110  -0.54298
 Alpha  occ. eigenvalues --   -0.53922  -0.52569  -0.52456  -0.50214  -0.47100
 Alpha  occ. eigenvalues --   -0.46475  -0.46163  -0.44172  -0.44130  -0.37371
 Alpha  occ. eigenvalues --   -0.36202  -0.36185  -0.35981  -0.33473
 Alpha virt. eigenvalues --   -0.02838   0.01503   0.01504   0.01529   0.06131
 Alpha virt. eigenvalues --    0.08593   0.10232   0.11191   0.14026   0.14027
 Alpha virt. eigenvalues --    0.14251   0.14287   0.14495   0.14641   0.15573

 Mulliken charges:
               1
     1  C   -0.048974
     2  C   -0.082095
     3  C   -0.106342
     4  N   -0.070320
     5  C   -0.142966
     6  C   -0.139666
     7  C   -0.111039
     8  N   -0.070305
     9  C   -0.048980
    10  C   -0.111038
    11  C   -0.142966
    12  C   -0.139666
    13  C   -0.082094
    14  C   -0.106343
    15  H    0.146269
    16  H    0.150006
    17  H    0.135701
    18  H    0.135294
    19  H    0.134126
    20  H    0.134127
    21  H    0.135701
    22  H    0.135293
    23  H    0.146269
    24  H    0.150008
 Sum of Mulliken charges =   0.00000

 Dipole moment (field-independent basis, Debye):
    X=              0.0000    Y=             -0.0001    Z=              0.0000  Tot=              0.0001
 N-N= 4.084883703090D+02 E-N=-7.226410791258D+02  KE=-4.556551114242D+01
 1\1\GINC-GTX1080DELTA\FOpt\RAM1\ZDO\C12H10N2\MVEROT\12-Apr-2022\0\\#n
 AM1 Opt\\Geometry optimization\\0,1\C,6.0815773558,1.6767789192,-0.421
 2107085\C,6.6743267204,0.3954473799,-0.3627667948\C,4.6759579106,1.777
 2451016,-0.4357073435\N,6.9939363329,2.7853896243,-0.4613838673\C,5.87
 4065852,-0.7421078555,-0.3205581365\C,3.8902751973,0.6280813335,-0.392
 9034882\C,4.4837726537,-0.6318230853,-0.3353597152\N,6.5565212018,3.93
 4740685,-0.5130954726\C,7.4689313526,5.0432840865,-0.5532768398\C,9.06
 69262869,7.3517379615,-0.63915182\C,7.6766436343,7.4621466887,-0.65387
 34539\C,9.6603112422,6.0917703788,-0.5816736154\C,6.8762877104,6.32465

 Normal termination of Gaussian 09 at Tue Apr 12 01:31:18 2022.
