 Gaussian 09, Revision D.01,
 Gaussian 09:  AM64L-G09RevD.01 24-Apr-2013

 -----------------------
 #n PM6 Opt=modredundant
 -----------------------

 -------------------------
 Optimisation de geometrie
 -------------------------
 Symbolic Z-matrix:
 Charge =  0 Multiplicity = 1

 SCF Done:  E(RPM6) = -0.166072106998     A.U. after   14 cycles
 SCF Done:  E(RPM6) = -0.169047460454     A.U. after   12 cycles
 SCF Done:  E(RPM6) = -0.169421650595     A.U. after   12 cycles
 SCF Done:  E(RPM6) = -0.169232616205     A.U. after   12 cycles
 SCF Done:  E(RPM6) = -0.169718708555     A.U. after    9 cycles
 SCF Done:  E(RPM6) = -0.169950080329     A.U. after   11 cycles
 SCF Done:  E(RPM6) = -0.170046476604     A.U. after   11 cycles
 SCF Done:  E(RPM6) = -0.170068239015     A.U. after   11 cycles
 SCF Done:  E(RPM6) = -0.170078854762     A.U. after   10 cycles
 SCF Done:  E(RPM6) = -0.170081496534     A.U. after    9 cycles
 Optimization completed.
    -- Stationary point found.
 Optimization completed.
 SCF Done:  E(RPM6) = -0.169931764071     A.U. after    9 cycles
 SCF Done:  E(RPM6) = -0.169932399598     A.U. after    9 cycles
 SCF Done:  E(RPM6) = -0.169932638185     A.U. after    8 cycles
    -- Stationary point found.
 SCF Done:  E(RPM6) = -0.168443182532     A.U. after   11 cycles
 SCF Done:  E(RPM6) = -0.169843864982     A.U. after   11 cycles
 SCF Done:  E(RPM6) = -0.169894831753     A.U. after   11 cycles
 SCF Done:  E(RPM6) = -0.169908163049     A.U. after   11 cycles
 SCF Done:  E(RPM6) = -0.169921547170     A.U. after   11 cycles
 SCF Done:  E(RPM6) = -0.169922996069     A.U. after   10 cycles
 SCF Done:  E(RPM6) = -0.169923291611     A.U. after    9 cycles
 Optimization completed.
    -- Stationary point found.

                         Standard orientation:
 ---------------------------------------------------------------------
 Center     Atomic      Atomic             Coordinates (Angstroms)
 Number     Number       Type             X           Y           Z
 ---------------------------------------------------------------------
      1          6           0        0.747259    1.174837    0.168931
      2          6           0        1.528524    0.017116   -0.455022
      3          8           0        1.572078   -1.133516    0.402422
      4          6           0       -0.745878    1.175095   -0.169078
      5          6           0       -1.527783    0.018084    0.455446
      6          8           0       -1.574154   -1.131826   -0.402781
      7          1           0        1.192161    2.134623   -0.165494
      8          1           0        0.893628    1.157886    1.269473
      9          1           0        2.603313    0.259358   -0.573200
     10          1           0        1.119288   -0.293909   -1.433594
     11          1           0        0.682677   -1.352846    0.747492
     12          1           0       -0.892247    1.157547   -1.269604
     13          1           0       -1.190315    2.135306    0.164749
     14          1           0       -2.602069    0.261689    0.575303
     15          1           0       -1.117519   -0.294019    1.433227
     16          1           0       -0.685040   -1.353692   -0.747144
 ---------------------------------------------------------------------

 The electronic state is 1-A.
 Alpha  occ. eigenvalues --   -1.13228  -1.08133  -1.02421  -0.93948  -0.84671
 Alpha  occ. eigenvalues --   -0.77189  -0.67192  -0.65272  -0.59973  -0.57517
 Alpha  occ. eigenvalues --   -0.56335  -0.52831  -0.52104  -0.50590  -0.45917
 Alpha  occ. eigenvalues --   -0.44489  -0.43808  -0.39649  -0.39042
 Alpha virt. eigenvalues --    0.08652   0.09512   0.12497   0.12736   0.13613
 Alpha virt. eigenvalues --    0.17608   0.18288   0.18806   0.18960   0.19278
 Alpha virt. eigenvalues --    0.19823   0.20381   0.21529   0.21747   0.22112

 Mulliken charges:
               1
     1  C   -0.329773
     2  C    0.008477
     3  O   -0.555767
     4  C   -0.329745
     5  C    0.008448
     6  O   -0.555699
     7  H    0.150740
     8  H    0.160255
     9  H    0.143883
    10  H    0.113813
    11  H    0.308328
    12  H    0.160299
    13  H    0.150724
    14  H    0.143925
    15  H    0.113746
    16  H    0.308345
 Sum of Mulliken charges =  -0.00000

 Dipole moment (field-independent basis, Debye):
    X=              0.0030    Y=              2.9130    Z=              0.0017  Tot=              2.9130
 N-N= 1.779560633341D+02 E-N=-3.091865064221D+02  KE=-2.197928593570D+01
 1\1\GINC-GTX1080DELTA\Scan\RPM6\ZDO\C4H10O2\MVEROT\18-Apr-2022\0\\#n P
 M6 Opt=modredundant\\Optimisation de geometrie\\0,1\C,2.1751676334,3.0
 03459137,1.3531609504\C,1.0555238982,2.2224546391,2.043408493\O,0.8241
 344802,0.9461709535,1.4280854584\C,3.5671301023,2.747898638,1.93697492
 25\C,4.0980516361,1.3346469911,1.6901556407\O,3.7462595589,0.429945459
 4,2.7478673995\H,1.9523559323,4.0885520766,1.415575371\H,2.1631096586,
 2.7692427273,0.2678494296\H,0.0717060908,2.7185622382,1.9259449477\H,1
 .2509932173,2.0594158998,3.1190587971\H,1.6632659675,0.4614030077,1.28
 99890209\H,3.5704047688,2.9494115895,3.0288866401\H,4.2783152913,3.482

 Normal termination of Gaussian 09 at Mon Apr 18 00:30:39 2022.
