 Gaussian 09, Revision D.01,
 Gaussian 09:  AM64L-G09RevD.01 24-Apr-2013

 ----------------------------
 # hf/6-31G* Opt=modredundant
 ----------------------------

 -------------------------
 Optimisation de geometrie
 -------------------------
 Symbolic Z-matrix:
 Charge =  0 Multiplicity = 1

 SCF Done:  E(RHF) =  -460.251284740     A.U. after   14 cycles
 SCF Done:  E(RHF) =  -460.253648789     A.U. after   12 cycles
 SCF Done:  E(RHF) =  -460.253744650     A.U. after   10 cycles
 SCF Done:  E(RHF) =  -460.253745403     A.U. after    8 cycles
 Optimization completed.
    -- Stationary point found.
 SCF Done:  E(RHF) =  -460.253708567     A.U. after   12 cycles
 SCF Done:  E(RHF) =  -460.253908838     A.U. after   13 cycles
 SCF Done:  E(RHF) =  -460.253919455     A.U. after   10 cycles
 SCF Done:  E(RHF) =  -460.253920019     A.U. after    8 cycles
 Optimization completed.
 SCF Done:  E(RHF) =  -460.253201740     A.U. after   12 cycles
 SCF Done:  E(RHF) =  -460.253452382     A.U. after   13 cycles
 SCF Done:  E(RHF) =  -460.251075959     A.U. after   13 cycles
 SCF Done:  E(RHF) =  -460.251147507     A.U. after   11 cycles
 SCF Done:  E(RHF) =  -460.251147972     A.U. after    9 cycles
 SCF Done:  E(RHF) =  -460.252488598     A.U. after   13 cycles
 SCF Done:  E(RHF) =  -460.252784542     A.U. after   13 cycles
 SCF Done:  E(RHF) =  -460.252786011     A.U. after    9 cycles
    -- Stationary point found.
 SCF Done:  E(RHF) =  -460.253524256     A.U. after   13 cycles
 SCF Done:  E(RHF) =  -460.253742717     A.U. after   13 cycles
 SCF Done:  E(RHF) =  -460.253745104     A.U. after    9 cycles
 SCF Done:  E(RHF) =  -460.253745475     A.U. after    9 cycles
 Optimization completed.
    -- Stationary point found.

                         Standard orientation:
 ---------------------------------------------------------------------
 Center     Atomic      Atomic             Coordinates (Angstroms)
 Number     Number       Type             X           Y           Z
 ---------------------------------------------------------------------
      1          6           0        2.844074   -1.127909   -0.401399
      2          6           0        1.459585   -1.124394   -0.402527
      3          6           0        0.745572    0.004368   -0.005947
      4          6           0        1.463871    1.126968    0.400647
      5          6           0        2.848306    1.125039    0.401222
      6          6           0        3.545147   -0.002733   -0.000213
      7          6           0       -0.745586    0.004333    0.006063
      8          6           0       -1.463799    1.126961   -0.400524
      9          6           0       -2.848255    1.125097   -0.401269
     10          6           0       -3.545131   -0.002656    0.000040
     11          6           0       -2.844115   -1.127896    0.401324
     12          6           0       -1.459671   -1.124449    0.402602
     13          1           0       -0.930706   -1.997465    0.739338
     14          1           0        3.373801   -2.007914   -0.720510
     15          1           0        0.930535   -1.997420   -0.739112
     16          1           0        0.937606    2.000564    0.740273
     17          1           0        3.381282    2.001646    0.724250
     18          1           0        4.620464   -0.005132    0.000795
     19          1           0       -0.937474    2.000543   -0.740108
     20          1           0       -3.381128    2.001737   -0.724388
     21          1           0       -4.620444   -0.005077   -0.001096
     22          1           0       -3.373926   -2.007852    0.720439
 ---------------------------------------------------------------------

 The electronic state is 1-A.
 Alpha  occ. eigenvalues --  -11.24113 -11.24043 -11.23072 -11.23072 -11.23038
 Alpha  occ. eigenvalues --  -11.23038 -11.22879 -11.22879 -11.22854 -11.22853
 Alpha  occ. eigenvalues --  -11.22823 -11.22822  -1.16815  -1.14122  -1.05069
 Alpha  occ. eigenvalues --   -1.01802  -1.00949  -0.98164  -0.84826  -0.83981
 Alpha  occ. eigenvalues --   -0.80822  -0.78860  -0.71830  -0.68098  -0.65111
 Alpha  occ. eigenvalues --   -0.63608  -0.61404  -0.60347  -0.58908  -0.58270
 Alpha  occ. eigenvalues --   -0.57989  -0.51787  -0.51364  -0.50030  -0.48821
 Alpha  occ. eigenvalues --   -0.47959  -0.47858  -0.36360  -0.33314  -0.33296
 Alpha  occ. eigenvalues --   -0.29706
 Alpha virt. eigenvalues --    0.11318   0.14332   0.14783   0.18662   0.24332
 Alpha virt. eigenvalues --    0.24552   0.27953   0.30038   0.30171   0.32110
 Alpha virt. eigenvalues --    0.32742   0.33287   0.34847   0.34999   0.38386

 Mulliken charges:
               1
     1  C   -0.198542
     2  C   -0.218307
     3  C    0.016997
     4  C   -0.218017
     5  C   -0.198253
     6  C   -0.203142
     7  C    0.016992
     8  C   -0.218031
     9  C   -0.198242
    10  C   -0.203145
    11  C   -0.198550
    12  C   -0.218285
    13  H    0.207572
    14  H    0.201571
    15  H    0.207566
    16  H    0.207424
    17  H    0.201564
    18  H    0.201134
    19  H    0.207423
    20  H    0.201569
    21  H    0.201130
    22  H    0.201571
 Sum of Mulliken charges =  -0.00000

 Dipole moment (field-independent basis, Debye):
    X=             -0.0000    Y=             -0.0050    Z=             -0.0000  Tot=              0.0050
 Quadrupole moment (field-independent basis, Debye-Ang):
   XX=            -61.1187   YY=            -62.9248   ZZ=            -75.2731
   XY=              0.0003   XZ=              0.0385   YZ=             -0.0004

 Normal termination of Gaussian 09 at Mon Apr 18 02:36:19 2022.
