 Gaussian 09, Revision D.01,
 Gaussian 09:  AM64L-G09RevD.01 24-Apr-2013

 --------------------
 # hf/6-31G* opt freq
 --------------------

 -------------------------
 Optimisation de geometrie
 -------------------------
 Symbolic Z-matrix:
 Charge =  0 Multiplicity = 1

 SCF Done:  E(RHF) =  -156.105070842     A.U. after   12 cycles
 SCF Done:  E(RHF) =  -156.106050594     A.U. after   10 cycles
 SCF Done:  E(RHF) =  -156.106082543     A.U. after    9 cycles
 SCF Done:  E(RHF) =  -156.106083196     A.U. after    8 cycles
 Optimization completed.
    -- Stationary point found.
 Normal termination of Gaussian 09 at Sat Apr 16 11:53:15 2022.

 -----------------------------------------------------------------
 #N Geom=AllCheck Guess=TCheck SCRF=Check GenChk RHF/6-31G(d) Freq
 -----------------------------------------------------------------

 Structure from the checkpoint file:  "1-but-ene-opt.chk"
 -------------------------
 Optimisation de geometrie
 -------------------------
 Charge =  0 Multiplicity = 1

                         Standard orientation:
 ---------------------------------------------------------------------
 Center     Atomic      Atomic             Coordinates (Angstroms)
 Number     Number       Type             X           Y           Z
 ---------------------------------------------------------------------
      1          6           0        0.724451   -0.290414    0.338800
      2          6           0        1.849859    0.013835   -0.277416
      3          6           0       -0.539149    0.526087    0.299329
      4          6           0       -1.721561   -0.251823   -0.287777
      5          1           0        0.677138   -1.199124    0.920675
      6          1           0        2.718724   -0.616965   -0.211677
      7          1           0        1.949097    0.907294   -0.870798
      8          1           0       -0.791047    0.841697    1.310089
      9          1           0       -0.370336    1.430588   -0.277422
     10          1           0       -2.624266    0.351061   -0.281106
     11          1           0       -1.520014   -0.547588   -1.312280
     12          1           0       -1.920897   -1.153073    0.284907
 ---------------------------------------------------------------------

 SCF Done:  E(RHF) =  -156.106083196     A.U. after    1 cycles

 The electronic state is 1-A.
 Alpha  occ. eigenvalues --  -11.22552 -11.22249 -11.21271 -11.21253  -1.07768
 Alpha  occ. eigenvalues --   -0.98867  -0.85502  -0.75377  -0.64095  -0.60501
 Alpha  occ. eigenvalues --   -0.58443  -0.53426  -0.51569  -0.48613  -0.47111
 Alpha  occ. eigenvalues --   -0.35649
 Alpha virt. eigenvalues --    0.18836   0.25060   0.27684   0.28441   0.31027
 Alpha virt. eigenvalues --    0.33361   0.33444   0.34271   0.35818   0.40613
 Alpha virt. eigenvalues --    0.47135   0.54757   0.69323   0.72259   0.73962

 Mulliken charges:
               1
     1  C   -0.116497
     2  C   -0.401083
     3  C   -0.341711
     4  C   -0.480165
     5  H    0.174844
     6  H    0.173316
     7  H    0.169150
     8  H    0.167149
     9  H    0.167846
    10  H    0.162630
    11  H    0.166900
    12  H    0.157621
 Sum of Mulliken charges =  -0.00000

 Dipole moment (field-independent basis, Debye):
    X=             -0.2805    Y=              0.0177    Z=              0.0865  Tot=              0.2941
 Quadrupole moment (field-independent basis, Debye-Ang):
   XX=            -26.5745   YY=            -26.4037   ZZ=            -27.2825
   XY=             -0.4963   XZ=             -0.8407   YZ=             -1.2853

  Exact polarizability:  53.759   0.402  35.783  -7.287  -4.572  33.681
 Approx polarizability:  40.440   0.688  31.770  -6.282  -4.134  30.887

                      1                      2                      3
                      A                      A                      A
 Frequencies --    114.9749               250.5053               341.4936
 Red. masses --      2.2273                 1.0869                 1.8211
 Frc consts  --      0.0173                 0.0402                 0.1251
 IR Inten    --      0.0432                 0.0323                 0.4564
 Raman Activ --      7.0292                 0.4210                 4.0227

                      4                      5                      6
                      A                      A                      A
 Frequencies --    463.0303               708.2603               859.5393
 Red. masses --      2.0128                 1.4701                 1.1750
 Frc consts  --      0.2543                 0.4345                 0.5115
 IR Inten    --      0.8512                 8.9502                 1.9062
 Raman Activ --      3.2345                 9.7322                 0.6680

                      7                      8                      9
                      A                      A                      A
 Frequencies --    920.2886              1070.3373              1071.3867
 Red. masses --      1.9668                 1.3246                 1.2854
 Frc consts  --      0.9814                 0.8941                 0.8694
 IR Inten    --      0.9688                42.4818                10.1823
 Raman Activ --      9.4009                 2.9081                 0.5811

                     10                     11                     12
                      A                      A                      A
 Frequencies --   1097.9654              1140.2844              1201.6708
 Red. masses --      2.0037                 1.1280                 1.6814
 Frc consts  --      1.4232                 0.8641                 1.4305
 IR Inten    --      1.5737                 7.3721                 5.2996
 Raman Activ --      7.2675                 1.2210                 4.9666

                     13                     14                     15
                      A                      A                      A
 Frequencies --   1307.5945              1409.9696              1439.0108
 Red. masses --      1.8575                 1.1677                 1.2662
 Frc consts  --      1.8712                 1.3677                 1.5448
 IR Inten    --      0.2433                 0.1088                 1.6190
 Raman Activ --      2.0910                17.0314                23.2303

                     16                     17                     18
                      A                      A                      A
 Frequencies --   1484.8352              1561.3404              1594.8123
 Red. masses --      1.4104                 1.2473                 1.1967
 Frc consts  --      1.8322                 1.7915                 1.7933
 IR Inten    --      6.1061                 0.9304                 1.5491
 Raman Activ --      2.5899                 1.8461                13.8967

                     19                     20                     21
                      A                      A                      A
 Frequencies --   1630.7139              1642.2536              1651.7339
 Red. masses --      1.0710                 1.0421                 1.0813
 Frc consts  --      1.6779                 1.6560                 1.7381
 IR Inten    --      2.5407                 4.1401                 3.4987
 Raman Activ --     23.1889                20.4236                 4.6248

                     22                     23                     24
                      A                      A                      A
 Frequencies --   1878.2940              3189.4162              3201.2205
 Red. masses --      4.2776                 1.0650                 1.0375
 Frc consts  --      8.8915                 6.3828                 6.2643
 IR Inten    --      8.0756                44.1253                34.5057
 Raman Activ --     31.3855                81.9608               141.1481

                     25                     26                     27
                      A                      A                      A
 Frequencies --   3231.7881              3263.2380              3271.1215
 Red. masses --      1.0985                 1.1022                 1.1041
 Frc consts  --      6.7601                 6.9152                 6.9606
 IR Inten    --      8.0462                60.0681                56.8306
 Raman Activ --    103.3732                62.4216                52.8223

                     28                     29                     30
                      A                      A                      A
 Frequencies --   3311.1322              3328.5575              3402.2740
 Red. masses --      1.0775                 1.0762                 1.1162
 Frc consts  --      6.9603                 7.0250                 7.6125
 IR Inten    --     38.6130                 6.0565                28.3953
 Raman Activ --     27.9304               138.3624                70.4713

 - Thermochemistry -
 -------------------
 Temperature   298.150 Kelvin.  Pressure   1.00000 Atm.
 Atom     1 has atomic number  6 and mass  12.00000

 Molecular mass:    56.06260 amu.
 Principal axes and moments of inertia in atomic units:
                           1         2         3
     Eigenvalues --    78.68710 433.44223 444.10421
           X            0.99999   0.00100  -0.00412
           Y           -0.00205   0.96443  -0.26434
           Z            0.00371   0.26434   0.96442
 This molecule is an asymmetric top.
 Rotational symmetry number  1.
 Rotational temperatures (Kelvin)      1.10074     0.19983     0.19503
 Rotational constants (GHZ):          22.93567     4.16374     4.06378
 Zero-point vibrational energy     305281.3 (Joules/Mol)
                                   72.96397 (Kcal/Mol)
 Warning -- explicit consideration of   4 degrees of freedom as
           vibrations may cause significant error
 Vibrational temperatures:    165.42   360.42   491.33   666.20  1019.03
          (Kelvin)           1236.68  1324.09  1539.97  1541.48  1579.73
                             1640.61  1728.93  1881.33  2028.63  2070.41
                             2136.34  2246.42  2294.58  2346.23  2362.83
                             2376.47  2702.44  4588.85  4605.84  4649.82
                             4695.07  4706.41  4763.97  4789.05  4895.11

 Zero-point correction=                           0.116275 (Hartree/Particle)
 Thermal correction to Energy=                    0.121311
 Thermal correction to Enthalpy=                  0.122255
 Thermal correction to Gibbs Free Energy=         0.088952
 Sum of electronic and zero-point Energies=           -155.989808
 Sum of electronic and thermal Energies=              -155.984772
 Sum of electronic and thermal Enthalpies=            -155.983828
 Sum of electronic and thermal Free Energies=         -156.017131

                     E (Thermal)             CV                S
                      KCal/Mol        Cal/Mol-Kelvin    Cal/Mol-Kelvin
 Total                   76.124             16.461             70.093
 Electronic               0.000              0.000              0.000
 Translational            0.889              2.981             37.993
 Rotational               0.889              2.981             24.230
 Vibrational             74.346             10.499              7.869
 Vibration     1          0.608              1.937              3.183
 Vibration     2          0.663              1.762              1.727
 Vibration     3          0.721              1.593              1.205
 Vibration     4          0.821              1.332              0.757

 Optimization completed.
    -- Stationary point found.
 Normal termination of Gaussian 09 at Sat Apr 16 11:53:23 2022.
