 Gaussian 09, Revision D.01,
 Gaussian 09:  AM64L-G09RevD.01 24-Apr-2013

 ----------
 #n PM6 Opt
 ----------

 -------------------------
 Optimisation de geometrie
 -------------------------
 Symbolic Z-matrix:
 Charge =  0 Multiplicity = 1

 SCF Done:  E(RPM6) = -0.158412916133     A.U. after   14 cycles
 SCF Done:  E(RPM6) = -0.160887061065     A.U. after   11 cycles
 SCF Done:  E(RPM6) = -0.161510324911     A.U. after   11 cycles
 SCF Done:  E(RPM6) = -0.161738374745     A.U. after   11 cycles
 SCF Done:  E(RPM6) = -0.161823919601     A.U. after   11 cycles
 SCF Done:  E(RPM6) = -0.161839537968     A.U. after   10 cycles
 SCF Done:  E(RPM6) = -0.161846990961     A.U. after    9 cycles
 SCF Done:  E(RPM6) = -0.161851140803     A.U. after    9 cycles
 SCF Done:  E(RPM6) = -0.161854133898     A.U. after   10 cycles
 SCF Done:  E(RPM6) = -0.161854915207     A.U. after    9 cycles
 SCF Done:  E(RPM6) = -0.161855180270     A.U. after    8 cycles
 SCF Done:  E(RPM6) = -0.161855430471     A.U. after    8 cycles
 SCF Done:  E(RPM6) = -0.161855821643     A.U. after    9 cycles
 SCF Done:  E(RPM6) = -0.161856019484     A.U. after    9 cycles
 Optimization completed.
    -- Stationary point found.

                         Standard orientation:
 ---------------------------------------------------------------------
 Center     Atomic      Atomic             Coordinates (Angstroms)
 Number     Number       Type             X           Y           Z
 ---------------------------------------------------------------------
      1          6           0        1.268175    0.492968    0.245106
      2          8           0        1.345898   -0.900004   -0.142308
      3          6           0       -0.024712    1.010787   -0.380091
      4          6           0       -1.272382    0.429255    0.292096
      5          8           0       -1.492080   -0.930492   -0.097632
      6          1           0        2.157425    1.006623   -0.163470
      7          1           0        1.266339    0.562128    1.346374
      8          1           0        2.032609   -1.358562    0.375663
      9          1           0       -0.040435    0.732259   -1.458497
     10          1           0       -0.044957    2.115904   -0.346976
     11          1           0       -2.196601    0.939851   -0.038534
     12          1           0       -1.206228    0.462635    1.394894
     13          1           0       -0.625187   -1.414932   -0.132596
 ---------------------------------------------------------------------

 The electronic state is 1-A.
 Alpha  occ. eigenvalues --   -1.11606  -1.07379  -0.99645  -0.88222  -0.77650
 Alpha  occ. eigenvalues --   -0.68268  -0.64949  -0.57694  -0.56641  -0.54674
 Alpha  occ. eigenvalues --   -0.50927  -0.47874  -0.47077  -0.43633  -0.39594
 Alpha  occ. eigenvalues --   -0.37247
 Alpha virt. eigenvalues --    0.08034   0.11373   0.12380   0.13918   0.18141
 Alpha virt. eigenvalues --    0.18715   0.19202   0.19604   0.19994   0.20745
 Alpha virt. eigenvalues --    0.22294   0.23555

 Mulliken charges:
               1
     1  C    0.023011
     2  O   -0.567273
     3  C   -0.376430
     4  C    0.037389
     5  O   -0.566169
     6  H    0.115443
     7  H    0.110787
     8  H    0.309156
     9  H    0.183128
    10  H    0.155169
    11  H    0.133626
    12  H    0.108828
    13  H    0.333335
 Sum of Mulliken charges =   0.00000

 Dipole moment (field-independent basis, Debye):
    X=              2.7440    Y=              2.3119    Z=              1.5888  Tot=              3.9242
 N-N= 1.370844486094D+02 E-N=-2.355139228975D+02  KE=-1.791707576078D+01
 1\1\GINC-GTX1080DELTA\FOpt\RPM6\ZDO\C3H8O2\MVEROT\17-Apr-2022\0\\#n PM
 6 Opt\\Optimisation de geometrie\\0,1\C,0.9770087323,2.0292912693,1.27
 93172474\O,1.566787718,3.1551814192,0.585752644\C,1.9817866688,0.89085
 84413,1.1213374828\C,3.2601128642,1.1232014174,1.9328741761\O,4.100388
 4823,2.1051783026,1.3174664673\H,0.01346746,1.7987324009,0.7894483438\
 H,0.8067097187,2.3038156253,2.3344062234\H,1.0894363864,3.9764408978,0
 .8044086767\H,2.2563243948,0.799031002,0.0457065129\H,1.51230388,-0.07
 00077111,1.4026072\H,3.9020066584,0.222426641,1.9608308081\H,3.0447466
 06,1.4554952379,2.9647915087\H,3.5451204302,2.8497550564,0.9643527087\

 Normal termination of Gaussian 09 at Sun Apr 17 23:24:16 2022.
