 Gaussian 09, Revision D.01,
 Gaussian 09:  AM64L-G09RevD.01 24-Apr-2013

 ---------------
 #n AM1 Opt freq
 ---------------

 -------------------------
 Optimisation de geometrie
 -------------------------
 Symbolic Z-matrix:
 Charge =  0 Multiplicity = 1

 SCF Done:  E(RAM1) = -0.252243349367E-01 A.U. after   10 cycles
 SCF Done:  E(RAM1) = -0.276071142757E-01 A.U. after    8 cycles
 SCF Done:  E(RAM1) = -0.277972563512E-01 A.U. after    8 cycles
 SCF Done:  E(RAM1) = -0.278223423750E-01 A.U. after    7 cycles
 Optimization completed.
    -- Stationary point found.
 Normal termination of Gaussian 09 at Sat Apr 16 12:12:33 2022.

 -------------------------------------------------------------
 #N Geom=AllCheck Guess=TCheck SCRF=Check GenChk RAM1/ZDO Freq
 -------------------------------------------------------------

 Structure from the checkpoint file:  "ethane-opt.chk"
 -------------------------
 Optimisation de geometrie
 -------------------------
 Charge =  0 Multiplicity = 1

                         Standard orientation:
 ---------------------------------------------------------------------
 Center     Atomic      Atomic             Coordinates (Angstroms)
 Number     Number       Type             X           Y           Z
 ---------------------------------------------------------------------
      1          1           0       -1.145090   -0.838503   -0.623335
      2          6           0       -0.750324    0.000000   -0.000001
      3          1           0       -1.145093   -0.120574    1.037831
      4          1           0       -1.145090    0.959076   -0.414496
      5          6           0        0.750324   -0.000000    0.000001
      6          1           0        1.145089    0.838081    0.623903
      7          1           0        1.145091   -0.959357    0.413845
      8          1           0        1.145093    0.121277   -1.037749
 ---------------------------------------------------------------------

 SCF Done:  E(RAM1) = -0.278223423750E-01 A.U. after    2 cycles

 The electronic state is 1-A.
 Alpha  occ. eigenvalues --   -1.22049  -0.86715  -0.54700  -0.54700  -0.48322
 Alpha  occ. eigenvalues --   -0.43248  -0.43248
 Alpha virt. eigenvalues --    0.15140   0.15140   0.17148   0.18172   0.18521
 Alpha virt. eigenvalues --    0.18521   0.19282

 Mulliken charges:
               1
     1  H    0.070617
     2  C   -0.211852
     3  H    0.070617
     4  H    0.070617
     5  C   -0.211852
     6  H    0.070617
     7  H    0.070617
     8  H    0.070617
 Sum of Mulliken charges =  -0.00000

 Dipole moment (field-independent basis, Debye):
    X=              0.0000    Y=             -0.0000    Z=             -0.0000  Tot=              0.0000
 N-N= 3.416880794500D+01 E-N=-5.089028306154D+01  KE=-8.443354517989D+00
  Exact polarizability:  16.391   0.000  17.737  -0.000   0.000  17.737
 Approx polarizability:   9.303   0.000  10.496  -0.000   0.000  10.496
 Calling FoFJK, ICntrl=    100127 FMM=F ISym2X=0 I1Cent= 0 IOpClX= 0 NMat=1 NMatS=1 NMatT=0.
 Full mass-weighted force constant matrix:
 Low frequencies ---  -36.6676  -12.1738  -12.1562   -0.0032   -0.0003   -0.0003
 Low frequencies ---  197.9636  888.5805  888.5817
 Diagonal vibrational polarizability:
        0.0069886       0.1331787       0.1331804
 Harmonic frequencies (cm**-1), IR intensities (KM/Mole), Raman scattering

                      1                      2                      3
                      A                      A                      A
 Frequencies --    197.9636               888.5805               888.5817
 Red. masses --      1.0078                 1.0552                 1.0552
 Frc consts  --      0.0233                 0.4909                 0.4909
 IR Inten    --      0.0000                 3.2156                 3.2156

                      4                      5                      6
                      A                      A                      A
 Frequencies --   1182.4626              1182.4630              1246.7807
 Red. masses --      1.4083                 1.4083                 2.2154
 Frc consts  --      1.1602                 1.1602                 2.0290
 IR Inten    --      0.0000                 0.0000                 0.0000

                      7                      8                      9
                      A                      A                      A
 Frequencies --   1393.2966              1393.2990              1394.5656
 Red. masses --      1.0716                 1.0716                 1.0721
 Frc consts  --      1.2257                 1.2257                 1.2285
 IR Inten    --      0.0000                 0.0000                 1.6819

                     10                     11                     12
                      A                      A                      A
 Frequencies --   1394.5680              1430.5110              1444.5271
 Red. masses --      1.0721                 1.2002                 1.5646
 Frc consts  --      1.2285                 1.4471                 1.9236
 IR Inten    --      1.6819                 0.5233                 0.0000

                     13                     14                     15
                      A                      A                      A
 Frequencies --   3049.9890              3049.9944              3073.1729
 Red. masses --      1.0858                 1.0858                 1.0948
 Frc consts  --      5.9512                 5.9512                 6.0923
 IR Inten    --      0.0000                 0.0000                 0.1077

                     16                     17                     18
                      A                      A                      A
 Frequencies --   3073.1782              3148.8809              3165.4469
 Red. masses --      1.0948                 1.0232                 1.0327
 Frc consts  --      6.0923                 5.9778                 6.0964
 IR Inten    --      0.1078                 0.0000                 0.0400

 - Thermochemistry -
 -------------------
 Temperature   298.150 Kelvin.  Pressure   1.00000 Atm.
 Atom     1 has atomic number  1 and mass   1.00783

 Molecular mass:    30.04695 amu.
 Principal axes and moments of inertia in atomic units:
                           1         2         3
     Eigenvalues --    23.57278  88.35228  88.35234
           X            1.00000   0.00000  -0.00000
           Y           -0.00000   1.00000   0.00000
           Z            0.00000  -0.00000   1.00000
 This molecule is an asymmetric top.
 Rotational symmetry number  1.
 Rotational temperatures (Kelvin)      3.67432     0.98032     0.98032
 Rotational constants (GHZ):          76.56040    20.42665    20.42664
 Zero-point vibrational energy     194980.9 (Joules/Mol)
                                   46.60155 (Kcal/Mol)
 Warning -- explicit consideration of   1 degrees of freedom as
           vibrations may cause significant error
 Vibrational temperatures:    284.83  1278.47  1278.47  1701.30  1701.30
          (Kelvin)           1793.84  2004.64  2004.64  2006.47  2006.47
                             2058.18  2078.35  4388.25  4388.26  4421.60
                             4421.61  4530.53  4554.37

 Zero-point correction=                           0.074264 (Hartree/Particle)
 Thermal correction to Energy=                    0.077867
 Thermal correction to Enthalpy=                  0.078811
 Thermal correction to Gibbs Free Energy=         0.050943
 Sum of electronic and zero-point Energies=              0.046442
 Sum of electronic and thermal Energies=                 0.050044
 Sum of electronic and thermal Enthalpies=               0.050988
 Sum of electronic and thermal Free Energies=            0.023120

                     E (Thermal)             CV                S
                      KCal/Mol        Cal/Mol-Kelvin    Cal/Mol-Kelvin
 Total                   48.862             10.065             58.654
 Electronic               0.000              0.000              0.000
 Translational            0.889              2.981             36.134
 Rotational               0.889              2.981             19.848
 Vibrational             47.085              4.103              2.672
 Vibration     1          0.637              1.843              2.152

 Optimization completed.
    -- Stationary point found.
 Normal termination of Gaussian 09 at Sat Apr 16 12:12:35 2022.
