 Gaussian 09, Revision D.01,
 Gaussian 09:  AM64L-G09RevD.01 24-Apr-2013

 ------------------------------------
 #n ZINDO(NSTATE=10) pop=full gfinput
 ------------------------------------

 ----------
 UV-spectra
 ----------
 Symbolic Z-matrix:
 Charge =  0 Multiplicity = 1

                         Standard orientation:
 ---------------------------------------------------------------------
 Center     Atomic      Atomic             Coordinates (Angstroms)
 Number     Number       Type             X           Y           Z
 ---------------------------------------------------------------------
      1          6           0       -0.634953   -1.473515   -0.000827
      2          6           0       -1.895806   -0.702366   -0.000131
      3          6           0        0.624844   -0.700591   -0.000299
      4          8           0       -0.632975   -2.713219   -0.001731
      5          6           0       -0.634953    1.473515   -0.000599
      6          6           0        0.624844    0.700591   -0.000405
      7          8           0       -0.632975    2.713219   -0.001161
      8          6           0       -1.895806    0.702366   -0.000123
      9          6           0       -3.112374   -1.394451    0.000447
     10          6           0        1.838193    1.399615   -0.000214
     11          6           0       -3.112374    1.394451    0.000413
     12          6           0        1.838193   -1.399615    0.000176
     13          6           0       -4.320540   -0.696647    0.001024
     14          6           0       -4.320540    0.696646    0.001002
     15          6           0        3.052318   -0.708614    0.000461
     16          6           0        3.052319    0.708614    0.000220
     17          1           0       -3.101444   -2.497340    0.000407
     18          1           0        1.823204    2.502354   -0.000416
     19          1           0       -3.101444    2.497340    0.000363
     20          1           0        1.823204   -2.502354    0.000266
     21          1           0       -5.271888   -1.250116    0.001470
     22          1           0       -5.271888    1.250116    0.001455
     23          8           0        4.273446   -1.333537    0.001018
     24          1           0        4.116265   -2.290762    0.000759
     25          8           0        4.273446    1.333536    0.000474
     26          1           0        4.116265    2.290762    0.000030
 ---------------------------------------------------------------------

 SCF Done:  E(RZINDO/S) =  -132.231494558     A.U. after   14 cycles

 Excitation energies and oscillator strengths:

 Excited State   1:      Singlet-A      2.6310 eV  471.24 nm  f=0.0000  <S**2>=0.000
      39 -> 46        -0.27611
      39 -> 49         0.22535
      40 -> 45         0.57736
      40 -> 50         0.15868
 This state for optimization and/or second-order correction.
 Total Energy, E(CIS) =  -132.134806483
 Copying the excited state density for this state as the 1-particle RhoCI density.

 Excited State   2:      Singlet-A      2.6918 eV  460.60 nm  f=0.0000  <S**2>=0.000
      39 -> 45         0.56453
      39 -> 50         0.16603
      40 -> 46        -0.29212
      40 -> 49         0.23124

 Excited State   3:      Singlet-A      3.5164 eV  352.59 nm  f=0.0460  <S**2>=0.000
      41 -> 45         0.20444
      44 -> 45         0.64798

 Excited State   4:      Singlet-A      3.8897 eV  318.75 nm  f=0.0641  <S**2>=0.000
      42 -> 47         0.10562
      43 -> 45         0.55530
      43 -> 47        -0.17058
      44 -> 46         0.30228
      44 -> 48        -0.20814

 Excited State   5:      Singlet-A      4.0745 eV  304.29 nm  f=0.1132  <S**2>=0.000
      41 -> 46         0.16183
      41 -> 48         0.15982
      42 -> 45         0.60458
      42 -> 47         0.17061
      43 -> 47         0.11653
      44 -> 48         0.13415

 Excited State   6:      Singlet-A      4.4014 eV  281.70 nm  f=0.4085  <S**2>=0.000
      41 -> 45         0.61954
      42 -> 46        -0.16942
      43 -> 48        -0.11736
      44 -> 45        -0.18377

 Excited State   7:      Singlet-A      4.7295 eV  262.15 nm  f=0.9745  <S**2>=0.000
      42 -> 45         0.11152
      43 -> 45        -0.39178
      44 -> 46         0.49576
      44 -> 48        -0.23184

 Excited State   8:      Singlet-A      5.1450 eV  240.98 nm  f=0.0138  <S**2>=0.000
      42 -> 48         0.10438
      43 -> 46         0.38291
      43 -> 48        -0.21617
      44 -> 45         0.15937
      44 -> 47         0.43792
      44 -> 50         0.20821

 Excited State   9:      Singlet-A      5.1504 eV  240.73 nm  f=0.3285  <S**2>=0.000
      41 -> 46         0.44800
      41 -> 48         0.28317
      42 -> 45        -0.30896
      42 -> 47         0.17136
      42 -> 50        -0.16652
      43 -> 47         0.14167
      44 -> 48         0.16207

 Excited State  10:      Singlet-A      5.4378 eV  228.00 nm  f=0.0512  <S**2>=0.000
      41 -> 45         0.18743
      41 -> 47        -0.19217
      41 -> 50         0.10164
      42 -> 46         0.40133
      42 -> 48         0.32415
      43 -> 46         0.29307
      44 -> 47        -0.20583

 The electronic state is 1-A.
 Alpha  occ. eigenvalues --   -1.73775  -1.68758  -1.60043  -1.58438  -1.57828
 Alpha  occ. eigenvalues --   -1.49669  -1.34634  -1.24937  -1.17377  -1.16488
 Alpha  occ. eigenvalues --   -1.03139  -0.99825  -0.93586  -0.93028  -0.91238
 Alpha  occ. eigenvalues --   -0.86346  -0.77458  -0.73017  -0.70951  -0.68596
 Alpha  occ. eigenvalues --   -0.67161  -0.60829  -0.60048  -0.59863  -0.58632
 Alpha  occ. eigenvalues --   -0.58226  -0.57827  -0.57684  -0.55981  -0.51020
 Alpha  occ. eigenvalues --   -0.51014  -0.50897  -0.49688  -0.49026  -0.47845
 Alpha  occ. eigenvalues --   -0.47045  -0.46696  -0.43500  -0.37767  -0.36870
 Alpha  occ. eigenvalues --   -0.35388  -0.35242  -0.34879  -0.32505
 Alpha virt. eigenvalues --   -0.06534  -0.01774   0.00202   0.00650   0.04716
 Alpha virt. eigenvalues --    0.04869   0.05806   0.08210   0.08792   0.09403
 Alpha virt. eigenvalues --    0.10050   0.10747   0.11286   0.12346   0.12932

 Mulliken charges:
               1
     1  C    0.321394
     2  C    0.011547
     3  C    0.003377
     4  O   -0.511389
     5  C    0.321394
     6  C    0.003377
     7  O   -0.511389
     8  C    0.011547
     9  C    0.002151
    10  C   -0.014422
    11  C    0.002151
    12  C   -0.014422
    13  C   -0.014090
    14  C   -0.014090
    15  C    0.150409
    16  C    0.150409
    17  H    0.055888
    18  H    0.058597
    19  H    0.055888
    20  H    0.058597
    21  H    0.040029
    22  H    0.040029
    23  O   -0.326966
    24  H    0.223472
    25  O   -0.326966
    26  H    0.223472
 Sum of Mulliken charges =   0.00000

 Dipole moment (field-independent basis, Debye):
    X=             -2.7638    Y=             -0.0000    Z=              0.0042  Tot=              2.7638
 N-N= 4.636058296698D+02 E-N= 0.000000000000D+00  KE=-1.121579402052D+03
 Orbital energies and kinetic energies (alpha):
                                 1                 2
   1         O                -1.737749        -13.906512
   2         O                -1.687578        -13.575596
   3         O                -1.600427        -13.838111
   4         O                -1.584376        -13.421295
   5         O                -1.578283        -13.126940
   6         O                -1.496690        -13.801683
   7         O                -1.346340        -13.595665

 Normal termination of Gaussian 09 at Tue Apr 12 00:35:56 2022.
