 Gaussian 09, Revision D.01,
 Gaussian 09:  AM64L-G09RevD.01 24-Apr-2013

 ----------
 #n AM1 Opt
 ----------

 -------------------------
 Optimisation de geometrie
 -------------------------
 Symbolic Z-matrix:
 Charge =  0 Multiplicity = 1

 SCF Done:  E(RAM1) = -0.186883085954     A.U. after   13 cycles
 SCF Done:  E(RAM1) = -0.192094727311     A.U. after   12 cycles
 SCF Done:  E(RAM1) = -0.192842391395     A.U. after   12 cycles
 SCF Done:  E(RAM1) = -0.193439250825     A.U. after   12 cycles
 SCF Done:  E(RAM1) = -0.193716156165     A.U. after   11 cycles
 SCF Done:  E(RAM1) = -0.193910006959     A.U. after   11 cycles
 SCF Done:  E(RAM1) = -0.194034488325     A.U. after   11 cycles
 SCF Done:  E(RAM1) = -0.194098188956     A.U. after   11 cycles
 SCF Done:  E(RAM1) = -0.194106007214     A.U. after   10 cycles
 SCF Done:  E(RAM1) = -0.194107439469     A.U. after    9 cycles
 SCF Done:  E(RAM1) = -0.194108976218     A.U. after   10 cycles
 SCF Done:  E(RAM1) = -0.194110079954     A.U. after   10 cycles
 SCF Done:  E(RAM1) = -0.194110352424     A.U. after    9 cycles
 Optimization completed.
    -- Stationary point found.

                         Standard orientation:
 ---------------------------------------------------------------------
 Center     Atomic      Atomic             Coordinates (Angstroms)
 Number     Number       Type             X           Y           Z
 ---------------------------------------------------------------------
      1          6           0       -0.462733    0.485106   -0.691415
      2          6           0       -1.517803    0.579144    0.397272
      3          8           0       -2.601833   -0.305146    0.182719
      4          6           0        0.459743   -0.702556   -0.526124
      5          6           0        1.542632   -0.462736    0.513096
      6          8           0        2.458166    0.475474   -0.031320
      7          1           0        0.150396    1.424772   -0.688821
      8          1           0       -0.979091    0.416495   -1.685316
      9          1           0       -1.992123    1.598055    0.397155
     10          1           0       -1.064776    0.384368    1.406891
     11          1           0       -2.235607   -1.192038    0.086426
     12          1           0        0.953162   -0.922501   -1.509699
     13          1           0       -0.124151   -1.610387   -0.223082
     14          1           0        2.078353   -1.424084    0.740448
     15          1           0        1.102492   -0.059191    1.464555
     16          1           0        3.129637    0.628141    0.643280
 ---------------------------------------------------------------------

 The electronic state is 1-A.
 Alpha  occ. eigenvalues --   -1.43635  -1.39155  -1.24771  -1.05781  -0.90997
 Alpha  occ. eigenvalues --   -0.78278  -0.69068  -0.66092  -0.60505  -0.58810
 Alpha  occ. eigenvalues --   -0.56396  -0.53591  -0.50729  -0.49946  -0.45672
 Alpha  occ. eigenvalues --   -0.44000  -0.43230  -0.40773  -0.39964
 Alpha virt. eigenvalues --    0.12086   0.13065   0.13529   0.13951   0.14201
 Alpha virt. eigenvalues --    0.14824   0.15011   0.15889   0.16293   0.17334
 Alpha virt. eigenvalues --    0.17601   0.18381   0.18593   0.22456   0.23285

 Mulliken charges:
               1
     1  C   -0.202296
     2  C   -0.024267
     3  O   -0.327469
     4  C   -0.158875
     5  C   -0.021168
     6  O   -0.328771
     7  H    0.108242
     8  H    0.096429
     9  H    0.105372
    10  H    0.059785
    11  H    0.194135
    12  H    0.101842
    13  H    0.075832
    14  H    0.060822
    15  H    0.061379
    16  H    0.199007
 Sum of Mulliken charges =   0.00000

 Dipole moment (field-independent basis, Debye):
    X=              1.6683    Y=             -0.8763    Z=              1.2603  Tot=              2.2670
 N-N= 1.767701988950D+02 E-N=-3.017877191525D+02  KE=-2.491305272333D+01
 1\1\GINC-GTX1080DELTA\FOpt\RAM1\ZDO\C4H10O2\MVEROT\17-Apr-2022\0\\#n A
 M1 Opt\\Optimisation de geometrie\\0,1\C,1.8934742432,1.1288145395,1.6
 143089193\C,1.3485221454,1.1631803523,3.0317368089\O,0.6553065229,-0.0
 213461426,3.3773821011\C,3.1723767848,0.3306990519,1.4868635665\C,4.39
 5480967,1.107261539,1.946328597\O,4.6484746174,2.117384216,0.981717093
 4\H,2.0848636415,2.1795181841,1.2703652317\H,1.112618783,0.6856005478,
 0.9412574266\H,0.5755028757,1.9723992137,3.1354907431\H,2.1750279686,1
 .3470766251,3.770365736\H,1.2530091692,-0.7615259561,3.2197212929\H,3.
 3177492643,0.0413124312,0.4124429253\H,3.1058687527,-0.6112018517,2.09

 Normal termination of Gaussian 09 at Sun Apr 17 23:35:23 2022.
