 Gaussian 09, Revision D.01,
 Gaussian 09:  AM64L-G09RevD.01 24-Apr-2013

 --------------------
 # hf/6-31G* opt freq
 --------------------

 -------------------------
 Optimisation de geometrie
 -------------------------
 Symbolic Z-matrix:
 Charge =  0 Multiplicity = 1

 SCF Done:  E(RHF) =  -234.206906861     A.U. after   10 cycles
 SCF Done:  E(RHF) =  -234.207989715     A.U. after    8 cycles
 SCF Done:  E(RHF) =  -234.208006818     A.U. after    7 cycles
 Optimization completed.
    -- Stationary point found.
 Normal termination of Gaussian 09 at Sat Apr 16 12:24:35 2022.

 -----------------------------------------------------------------
 #N Geom=AllCheck Guess=TCheck SCRF=Check GenChk RHF/6-31G(d) Freq
 -----------------------------------------------------------------

 Structure from the checkpoint file:  "cyclohexane-opt.chk"
 -------------------------
 Optimisation de geometrie
 -------------------------
 Charge =  0 Multiplicity = 1

                         Standard orientation:
 ---------------------------------------------------------------------
 Center     Atomic      Atomic             Coordinates (Angstroms)
 Number     Number       Type             X           Y           Z
 ---------------------------------------------------------------------
      1          6           0       -0.029612   -1.461786   -0.228771
      2          6           0        1.251198   -0.756548    0.228769
      3          6           0        1.280806    0.705261   -0.228772
      4          6           0        0.029610    1.461784    0.228775
      5          6           0       -1.251195    0.756547   -0.228777
      6          6           0       -1.280807   -0.705258    0.228776
      7          1           0       -0.050274   -2.481293    0.146973
      8          1           0       -0.031031   -1.531739   -1.315538
      9          1           0        2.123787   -1.284193   -0.146979
     10          1           0        1.311076   -0.792734    1.315533
     11          1           0        1.342103    0.738999   -1.315536
     12          1           0        2.174042    1.197142    0.146981
     13          1           0        0.050266    2.481293   -0.146962
     14          1           0        0.031025    1.531728    1.315544
     15          1           0       -1.311061    0.792728   -1.315542
     16          1           0       -2.123786    1.284194    0.146964
     17          1           0       -2.174046   -1.197135   -0.146975
     18          1           0       -1.342102   -0.738992    1.315539
 ---------------------------------------------------------------------

 SCF Done:  E(RHF) =  -234.208006818     A.U. after    1 cycles

 The electronic state is 1-A.
 Alpha  occ. eigenvalues --  -11.21107 -11.21080 -11.21080 -11.21020 -11.21020
 Alpha  occ. eigenvalues --  -11.20989  -1.11034  -0.99928  -0.99927  -0.82718
 Alpha  occ. eigenvalues --   -0.82718  -0.74963  -0.64616  -0.60673  -0.59508
 Alpha  occ. eigenvalues --   -0.59507  -0.52326  -0.52325  -0.50959  -0.47995
 Alpha  occ. eigenvalues --   -0.47995  -0.44798  -0.42400  -0.42399
 Alpha virt. eigenvalues --    0.22688   0.25831   0.28122   0.28123   0.31102
 Alpha virt. eigenvalues --    0.32240   0.32708   0.32709   0.34344   0.34344
 Alpha virt. eigenvalues --    0.34943   0.34944   0.41287   0.41287   0.42471

 Mulliken charges:
               1
     1  C   -0.311661
     2  C   -0.311652
     3  C   -0.311652
     4  C   -0.311661
     5  C   -0.311652
     6  C   -0.311652
     7  H    0.160673
     8  H    0.150981
     9  H    0.160674
    10  H    0.150981
    11  H    0.150982
    12  H    0.160674
    13  H    0.160673
    14  H    0.150981
    15  H    0.150981
    16  H    0.160674
    17  H    0.160674
    18  H    0.150982
 Sum of Mulliken charges =  -0.00000

 Dipole moment (field-independent basis, Debye):
    X=             -0.0000    Y=              0.0000    Z=              0.0000  Tot=              0.0000
 Quadrupole moment (field-independent basis, Debye-Ang):
   XX=            -40.6278   YY=            -40.6285   ZZ=            -39.9860
   XY=              0.0000   XZ=             -0.0000   YZ=              0.0001

  Exact polarizability:  60.559   0.000  60.557  -0.000   0.000  54.653
 Approx polarizability:  50.446   0.000  50.445  -0.000   0.000  53.622

                      1                      2                      3
                      A                      A                      A
 Frequencies --    246.6658               246.6811               402.2102
 Red. masses --      1.7746                 1.7747                 1.5621
 Frc consts  --      0.0636                 0.0636                 0.1489
 IR Inten    --      0.0006                 0.0006                 0.0000
 Raman Activ --      0.0000                 0.0000                 0.4414

                      4                      5                      6
                      A                      A                      A
 Frequencies --    458.6089               458.6170               562.8158
 Red. masses --      2.9982                 2.9983                 1.3255
 Frc consts  --      0.3715                 0.3716                 0.2474
 IR Inten    --      0.0000                 0.0000                 0.2148
 Raman Activ --      0.7637                 0.7636                 0.0000

                      7                      8                      9
                      A                      A                      A
 Frequencies --    853.4828               862.7323               862.7386
 Red. masses --      3.5058                 1.4464                 1.4464
 Frc consts  --      1.5046                 0.6343                 0.6343
 IR Inten    --      0.0000                 0.0000                 0.0000
 Raman Activ --     26.0905                 1.1067                 1.1067

                     10                     11                     12
                      A                      A                      A
 Frequencies --    924.5338               924.5828               996.8501
 Red. masses --      2.4146                 2.4145                 1.2712
 Frc consts  --      1.2160                 1.2161                 0.7443
 IR Inten    --      1.0575                 1.0573                 1.5532
 Raman Activ --      0.0000                 0.0000                 0.0000

                     13                     14                     15
                      A                      A                      A
 Frequencies --    996.8610              1108.6300              1108.6467
 Red. masses --      1.2712                 1.7245                 1.7243
 Frc consts  --      0.7443                 1.2488                 1.2487
 IR Inten    --      1.5526                 0.0000                 0.0000
 Raman Activ --      0.0000                14.7115                14.7130

                     16                     17                     18
                      A                      A                      A
 Frequencies --   1133.3431              1159.7464              1179.1732
 Red. masses --      2.5493                 1.0105                 1.9841
 Frc consts  --      1.9293                 0.8008                 1.6254
 IR Inten    --      1.8809                 0.0000                 0.0000
 Raman Activ --      0.0000                 0.0000                 0.0000

                     19                     20                     21
                      A                      A                      A
 Frequencies --   1240.0097              1297.6485              1400.3817
 Red. masses --      1.1728                 2.1829                 1.2945
 Frc consts  --      1.0625                 2.1657                 1.4957
 IR Inten    --      0.0000                 0.0000                 2.8609
 Raman Activ --      0.0000                 1.7309                 0.0000

                     22                     23                     24
                      A                      A                      A
 Frequencies --   1400.4005              1410.1420              1410.1452
 Red. masses --      1.2945                 1.1815                 1.1814
 Frc consts  --      1.4957                 1.3842                 1.3842
 IR Inten    --      2.8614                 0.0000                 0.0000
 Raman Activ --      0.0000                28.2804                28.2804

                     25                     26                     27
                      A                      A                      A
 Frequencies --   1479.7063              1521.3277              1523.4416
 Red. masses --      1.3034                 1.4062                 1.4164
 Frc consts  --      1.6815                 1.9175                 1.9368
 IR Inten    --      0.0000                 0.0000                 2.0698
 Raman Activ --      0.0000                 0.0000                 0.0000

                     28                     29                     30
                      A                      A                      A
 Frequencies --   1523.4478              1529.9456              1529.9489
 Red. masses --      1.4164                 1.6111                 1.6112
 Frc consts  --      1.9368                 2.2219                 2.2221
 IR Inten    --      2.0715                 0.0000                 0.0000
 Raman Activ --      0.0000                 3.0053                 3.0042

                     31                     32                     33
                      A                      A                      A
 Frequencies --   1630.5738              1630.5757              1641.4122
 Red. masses --      1.0883                 1.0883                 1.1123
 Frc consts  --      1.7048                 1.7048                 1.7657
 IR Inten    --      0.0000                 0.0000                 1.6939
 Raman Activ --     32.5924                32.5915                 0.0000

                     34                     35                     36
                      A                      A                      A
 Frequencies --   1641.4165              1641.6700              1662.5361
 Red. masses --      1.1123                 1.0785                 1.1043
 Frc consts  --      1.7657                 1.7125                 1.7984
 IR Inten    --      1.6929                10.2918                 0.0000
 Raman Activ --      0.0000                 0.0000                 1.1120

                     37                     38                     39
                      A                      A                      A
 Frequencies --   3180.0076              3180.0327              3183.2499
 Red. masses --      1.0731                 1.0731                 1.0620
 Frc consts  --      6.3937                 6.3938                 6.3405
 IR Inten    --     30.1133                30.1362                 0.0000
 Raman Activ --      0.0000                 0.0000                43.1539

                     40                     41                     42
                      A                      A                      A
 Frequencies --   3183.2656              3184.6492              3185.2662
 Red. masses --      1.0620                 1.0797                 1.0601
 Frc consts  --      6.3405                 6.4517                 6.3369
 IR Inten    --      0.0000                 0.0000                71.5888
 Raman Activ --     43.1714               363.0722                 0.0000

                     43                     44                     45
                      A                      A                      A
 Frequencies --   3225.6661              3225.6756              3228.1568
 Red. masses --      1.0921                 1.0921                 1.1041
 Frc consts  --      6.6950                 6.6950                 6.7793
 IR Inten    --    162.7006               162.7394                 0.0000
 Raman Activ --      0.0000                 0.0000               138.8904

                     46                     47                     48
                      A                      A                      A
 Frequencies --   3228.1599              3232.0530              3239.9002
 Red. masses --      1.1041                 1.0865                 1.1058
 Frc consts  --      6.7794                 6.6871                 6.8391
 IR Inten    --      0.0000                 0.0000               212.3260
 Raman Activ --    138.8564               352.1943                 0.0000

 - Thermochemistry -
 -------------------
 Temperature   298.150 Kelvin.  Pressure   1.00000 Atm.
 Atom     1 has atomic number  6 and mass  12.00000

 Molecular mass:    84.09390 amu.
 Principal axes and moments of inertia in atomic units:
                           1         2         3
     Eigenvalues --   417.96141 417.98909 733.36087
           X            0.99998   0.00582   0.00000
           Y           -0.00582   0.99998   0.00000
           Z           -0.00000  -0.00000   1.00000
 This molecule is an asymmetric top.
 Rotational symmetry number  1.
 Rotational temperatures (Kelvin)      0.20723     0.20722     0.11811
 Rotational constants (GHZ):           4.31796     4.31768     2.46092
 Zero-point vibrational energy     478971.2 (Joules/Mol)
                                  114.47686 (Kcal/Mol)
 Warning -- explicit consideration of   6 degrees of freedom as
           vibrations may cause significant error
 Vibrational temperatures:    354.90   354.92   578.69   659.84   659.85
          (Kelvin)            809.77  1227.97  1241.28  1241.29  1330.20
                             1330.27  1434.24  1434.26  1595.07  1595.09
                             1630.63  1668.61  1696.57  1784.10  1867.02
                             2014.83  2014.86  2028.88  2028.88  2128.96
                             2188.85  2191.89  2191.90  2201.25  2201.25
                             2346.03  2346.03  2361.62  2361.63  2361.99
                             2392.02  4575.32  4575.35  4579.98  4580.00
                             4581.99  4582.88  4641.01  4641.02  4644.59
                             4644.60  4650.20  4661.49

 Zero-point correction=                           0.182430 (Hartree/Particle)
 Thermal correction to Energy=                    0.187815
 Thermal correction to Enthalpy=                  0.188759
 Thermal correction to Gibbs Free Energy=         0.153830
 Sum of electronic and zero-point Energies=           -234.025576
 Sum of electronic and thermal Energies=              -234.020192
 Sum of electronic and thermal Enthalpies=            -234.019247
 Sum of electronic and thermal Free Energies=         -234.054177

                     E (Thermal)             CV                S
                      KCal/Mol        Cal/Mol-Kelvin    Cal/Mol-Kelvin
 Total                  117.856             20.818             73.516
 Electronic               0.000              0.000              0.000
 Translational            0.889              2.981             39.202
 Rotational               0.889              2.981             26.352
 Vibrational            116.078             14.856              7.962
 Vibration     1          0.661              1.768              1.754
 Vibration     2          0.661              1.768              1.754
 Vibration     3          0.768              1.465              0.955
 Vibration     4          0.817              1.342              0.770
 Vibration     5          0.817              1.342              0.770
 Vibration     6          0.919              1.112              0.518

 Optimization completed.
    -- Stationary point found.
 Normal termination of Gaussian 09 at Sat Apr 16 12:25:05 2022.
