 Gaussian 09, Revision D.01,
 Gaussian 09:  AM64L-G09RevD.01 24-Apr-2013

 ------------------------------------
 #n ZINDO(NSTATE=10) pop=full gfinput
 ------------------------------------

 ----------
 UV-spectra
 ----------
 Symbolic Z-matrix:
 Charge =  0 Multiplicity = 1

                         Standard orientation:
 ---------------------------------------------------------------------
 Center     Atomic      Atomic             Coordinates (Angstroms)
 Number     Number       Type             X           Y           Z
 ---------------------------------------------------------------------
      1          6           0       -0.000022   -1.113059   -0.000661
      2          6           0        1.268146   -0.369070   -0.000282
      3          6           0       -1.268156   -0.369050   -0.000282
      4          8           0       -0.000084   -2.363597    0.000042
      5          6           0       -0.000011    1.807446   -0.000557
      6          6           0       -1.266127    1.043941   -0.000254
      7          8           0       -0.000008    3.047425    0.000026
      8          6           0        1.266102    1.043932   -0.000253
      9          6           0        2.515827   -1.025760    0.000039
     10          6           0       -2.456894    1.763482    0.000060
     11          6           0        2.456852    1.763498    0.000061
     12          6           0       -2.515798   -1.025769    0.000040
     13          6           0        3.725971   -0.284735    0.000354
     14          6           0        3.688441    1.094625    0.000359
     15          6           0       -3.725969   -0.284787    0.000354
     16          6           0       -3.688470    1.094577    0.000357
     17          1           0        2.423917    2.865856    0.000072
     18          1           0        4.677374   -0.838141    0.000593
     19          1           0        4.624171    1.675300    0.000608
     20          1           0       -4.624213    1.675229    0.000606
     21          1           0       -4.677356   -0.838222    0.000593
     22          8           0        2.718235   -2.374674    0.000073
     23          1           0        1.876859   -2.858632   -0.000144
     24          1           0       -2.423985    2.865842    0.000070
     25          8           0       -2.718081   -2.374697    0.000076
     26          1           0       -1.876620   -2.858512   -0.000146
 ---------------------------------------------------------------------

 SCF Done:  E(RZINDO/S) =  -132.255702725     A.U. after   14 cycles

 Excitation energies and oscillator strengths:

 Excited State   1:      Singlet-A      2.6168 eV  473.81 nm  f=0.0000  <S**2>=0.000
      39 -> 45        -0.39607
      39 -> 46        -0.30442
      39 -> 49         0.14540
      39 -> 50         0.19540
      40 -> 45         0.40397
      40 -> 50        -0.10620
 This state for optimization and/or second-order correction.
 Total Energy, E(CIS) =  -132.159538332
 Copying the excited state density for this state as the 1-particle RhoCI density.

 Excited State   2:      Singlet-A      2.6822 eV  462.25 nm  f=0.0000  <S**2>=0.000
      39 -> 45         0.39695
      39 -> 50        -0.10302
      40 -> 45         0.41334
      40 -> 46        -0.29475
      40 -> 49         0.23265

 Excited State   3:      Singlet-A      3.4846 eV  355.80 nm  f=0.4246  <S**2>=0.000
      42 -> 45        -0.11419
      42 -> 46        -0.10613
      43 -> 47        -0.16257
      44 -> 45         0.65448

 Excited State   4:      Singlet-A      3.7070 eV  334.46 nm  f=0.0048  <S**2>=0.000
      42 -> 48        -0.14215
      43 -> 45         0.64701
      44 -> 47        -0.18310

 Excited State   5:      Singlet-A      3.8829 eV  319.31 nm  f=0.0068  <S**2>=0.000
      41 -> 47         0.10638
      42 -> 45         0.65174
      44 -> 45         0.10849
      44 -> 46         0.16074

 Excited State   6:      Singlet-A      4.4464 eV  278.84 nm  f=0.1145  <S**2>=0.000
      41 -> 45         0.52863
      42 -> 47         0.11118
      43 -> 46        -0.34784
      44 -> 48        -0.24434

 Excited State   7:      Singlet-A      4.8717 eV  254.50 nm  f=0.0109  <S**2>=0.000
      42 -> 45        -0.19228
      42 -> 46        -0.12802
      43 -> 48         0.26994
      44 -> 46         0.57877

 Excited State   8:      Singlet-A      4.9531 eV  250.32 nm  f=0.0001  <S**2>=0.000
      41 -> 46        -0.33271
      42 -> 48         0.27464
      43 -> 45         0.23666
      43 -> 49         0.12543
      43 -> 50        -0.19018
      44 -> 47         0.43956

 Excited State   9:      Singlet-A      4.9980 eV  248.07 nm  f=0.4098  <S**2>=0.000
      41 -> 48        -0.22916
      42 -> 46         0.44722
      43 -> 47         0.33209
      43 -> 48         0.11338
      44 -> 45         0.20651
      44 -> 46         0.13608
      44 -> 49         0.13016
      44 -> 50        -0.17043

 Excited State  10:      Singlet-A      5.1505 eV  240.72 nm  f=0.7772  <S**2>=0.000
      41 -> 45         0.43956
      43 -> 46         0.47273
      44 -> 48         0.24043

 The electronic state is 1-A.
 Alpha  occ. eigenvalues --   -1.75470  -1.68105  -1.64860  -1.54694  -1.53603
 Alpha  occ. eigenvalues --   -1.51098  -1.35418  -1.22606  -1.17325  -1.14478
 Alpha  occ. eigenvalues --   -1.04848  -1.02845  -1.00248  -0.89002  -0.88428
 Alpha  occ. eigenvalues --   -0.86430  -0.75665  -0.73089  -0.72731  -0.67077
 Alpha  occ. eigenvalues --   -0.66557  -0.65415  -0.61627  -0.60034  -0.58240
 Alpha  occ. eigenvalues --   -0.57528  -0.57151  -0.55386  -0.53056  -0.52480
 Alpha  occ. eigenvalues --   -0.51953  -0.50290  -0.49507  -0.49317  -0.47252
 Alpha  occ. eigenvalues --   -0.46922  -0.46744  -0.44602  -0.37565  -0.36431
 Alpha  occ. eigenvalues --   -0.36218  -0.35351  -0.33531  -0.32823
 Alpha virt. eigenvalues --   -0.06825  -0.01852  -0.00040   0.00796   0.04485
 Alpha virt. eigenvalues --    0.04842   0.05380   0.08150   0.08736   0.09087
 Alpha virt. eigenvalues --    0.10522   0.10611   0.11392   0.12271   0.12893

 Mulliken charges:
               1
     1  C    0.326840
     2  C   -0.013055
     3  C   -0.013056
     4  O   -0.528770
     5  C    0.320332
     6  C    0.013945
     7  O   -0.508245
     8  C    0.013947
     9  C    0.187915
    10  C   -0.010096
    11  C   -0.010093
    12  C    0.187922
    13  C   -0.024384
    14  C   -0.005459
    15  C   -0.024385
    16  C   -0.005460
    17  H    0.056858
    18  H    0.049006
    19  H    0.042485
    20  H    0.042485
    21  H    0.049007
    22  O   -0.344549
    23  H    0.242260
    24  H    0.056857
    25  O   -0.344575
    26  H    0.242270
 Sum of Mulliken charges =  -0.00000

 Dipole moment (field-independent basis, Debye):
    X=              0.0004    Y=              0.7588    Z=             -0.0031  Tot=              0.7588
 N-N= 4.737295068896D+02 E-N= 0.000000000000D+00  KE=-1.141890417692D+03
 Orbital energies and kinetic energies (alpha):
                                 1                 2
   1         O                -1.754699        -14.314843
   2         O                -1.681048        -13.770656
   3         O                -1.648605        -14.094369
   4         O                -1.546937        -13.513981
   5         O                -1.536028        -13.902794
   6         O                -1.510975        -13.952040
   7         O                -1.354179        -13.837417

 Normal termination of Gaussian 09 at Tue Apr 12 00:35:54 2022.
