 Gaussian 09, Revision D.01,
 Gaussian 09:  AM64L-G09RevD.01 24-Apr-2013

 ----------
 #n AM1 Opt
 ----------

 -------------------------
 Optimisation de geometrie
 -------------------------
 Symbolic Z-matrix:
 Charge =  0 Multiplicity = 1

 SCF Done:  E(RAM1) = -0.177860384249     A.U. after   12 cycles
 SCF Done:  E(RAM1) = -0.181759004756     A.U. after   11 cycles
 SCF Done:  E(RAM1) = -0.182049879022     A.U. after   10 cycles
 SCF Done:  E(RAM1) = -0.182107866698     A.U. after   10 cycles
 SCF Done:  E(RAM1) = -0.182129144719     A.U. after   10 cycles
 SCF Done:  E(RAM1) = -0.182156151044     A.U. after   11 cycles
 SCF Done:  E(RAM1) = -0.182159406855     A.U. after   10 cycles
 SCF Done:  E(RAM1) = -0.182160442234     A.U. after    9 cycles
 SCF Done:  E(RAM1) = -0.182160809988     A.U. after    9 cycles
 SCF Done:  E(RAM1) = -0.182161384770     A.U. after    9 cycles
 SCF Done:  E(RAM1) = -0.182161641825     A.U. after    9 cycles
 Optimization completed.
    -- Stationary point found.

                         Standard orientation:
 ---------------------------------------------------------------------
 Center     Atomic      Atomic             Coordinates (Angstroms)
 Number     Number       Type             X           Y           Z
 ---------------------------------------------------------------------
      1          6           0        0.982970   -0.341583    0.318060
      2          8           0        2.278379   -0.046753   -0.182340
      3          6           0        0.039258    0.706158   -0.245116
      4          6           0       -1.371926    0.500333    0.272634
      5          8           0       -1.860823   -0.716163   -0.272008
      6          1           0        0.996714   -0.301084    1.440887
      7          1           0        0.658035   -1.366141   -0.006642
      8          1           0        2.845025   -0.782904    0.073816
      9          1           0        0.046923    0.644213   -1.364087
     10          1           0        0.391010    1.728578    0.047379
     11          1           0       -2.026539    1.353733   -0.052281
     12          1           0       -1.380757    0.442784    1.394828
     13          1           0       -2.772676   -0.805299    0.027418
 ---------------------------------------------------------------------

 The electronic state is 1-A.
 Alpha  occ. eigenvalues --   -1.42653  -1.37982  -1.19486  -0.95794  -0.80626
 Alpha  occ. eigenvalues --   -0.68802  -0.66483  -0.60279  -0.57809  -0.54217
 Alpha  occ. eigenvalues --   -0.52803  -0.47157  -0.45658  -0.44597  -0.40491
 Alpha  occ. eigenvalues --   -0.39644
 Alpha virt. eigenvalues --    0.12415   0.12779   0.14065   0.14635   0.15339
 Alpha virt. eigenvalues --    0.15730   0.16560   0.17177   0.18297   0.18502
 Alpha virt. eigenvalues --    0.22590   0.23297

 Mulliken charges:
               1
     1  C   -0.017777
     2  O   -0.332063
     3  C   -0.163065
     4  C   -0.019423
     5  O   -0.330774
     6  H    0.056161
     7  H    0.078572
     8  H    0.198479
     9  H    0.109287
    10  H    0.097916
    11  H    0.063669
    12  H    0.060432
    13  H    0.198587
 Sum of Mulliken charges =   0.00000

 Dipole moment (field-independent basis, Debye):
    X=             -1.2845    Y=             -0.1401    Z=              1.6243  Tot=              2.0756
 N-N= 1.371844875263D+02 E-N=-2.308399215873D+02  KE=-2.080374166160D+01
 1\1\GINC-GTX1080DELTA\FOpt\RAM1\ZDO\C3H8O2\MVEROT\17-Apr-2022\0\\#n AM
 1 Opt\\Optimisation de geometrie\\0,1\C,1.3488818602,2.2670725635,1.27
 51129497\O,0.0476250541,2.028414475,0.7601554329\C,2.0697969467,0.9309
 559626,1.2994958911\C,3.4636760412,1.0765435183,1.8806775075\O,4.23242
 32855,1.8538574802,0.9749575702\H,1.2693843751,2.6943116736,2.31131632
 52\H,1.904865557,2.9922099052,0.6225851324\H,-0.3577933291,2.892737213
 6,0.6289946284\H,2.1328894945,0.5282875719,0.2555276766\H,1.4897815288
 ,0.1992782707,1.9182495965\H,3.9328681016,0.0634843171,2.0069653958\H,
 3.427526305,1.5871909571,2.8809983517\H,5.1253547793,1.8942860912,1.33

 Normal termination of Gaussian 09 at Sun Apr 17 23:35:11 2022.
