 Gaussian 09, Revision D.01,
 Gaussian 09:  AM64L-G09RevD.01 24-Apr-2013

 ----------
 #n AM1 Opt
 ----------

 -------------------------
 Optimisation de geometrie
 -------------------------
 Symbolic Z-matrix:
 Charge =  1 Multiplicity = 2

 SCF Done:  E(UAM1) =  0.399272671417     A.U. after   37 cycles
 SCF Done:  E(UAM1) =  0.380540229580     A.U. after   18 cycles
 SCF Done:  E(UAM1) =  0.378450294526     A.U. after   15 cycles
 SCF Done:  E(UAM1) =  0.378301074596     A.U. after   11 cycles
 SCF Done:  E(UAM1) =  0.378277300974     A.U. after   10 cycles
 SCF Done:  E(UAM1) =  0.378275883720     A.U. after   10 cycles
 Optimization completed.
    -- Stationary point found.

                         Standard orientation:
 ---------------------------------------------------------------------
 Center     Atomic      Atomic             Coordinates (Angstroms)
 Number     Number       Type             X           Y           Z
 ---------------------------------------------------------------------
      1          6           0        1.180607    0.000003   -0.000001
      2          6           0       -0.000007    1.014843    0.000001
      3          6           0       -1.180607   -0.000003   -0.000001
      4          6           0        0.000007   -1.014843    0.000000
      5          1           0        1.816191    0.000008    0.913909
      6          1           0        1.816190    0.000011   -0.913912
      7          1           0       -0.000006    1.589720   -0.962740
      8          1           0       -0.000006    1.589715    0.962746
      9          1           0       -1.816190   -0.000008   -0.913912
     10          1           0       -1.816191   -0.000011    0.913909
     11          1           0        0.000005   -1.589718   -0.962742
     12          1           0        0.000005   -1.589717    0.962744
 ---------------------------------------------------------------------

 The electronic state is 2-A.
 Alpha  occ. eigenvalues --   -1.66345  -1.22790  -1.19038  -0.95018  -0.85450
 Alpha  occ. eigenvalues --   -0.80906  -0.72906  -0.71970  -0.70984  -0.68624
 Alpha  occ. eigenvalues --   -0.63480  -0.63021
 Alpha virt. eigenvalues --   -0.14369  -0.10696  -0.09693  -0.09054  -0.08285
 Alpha virt. eigenvalues --   -0.05829  -0.05697  -0.05612  -0.05063  -0.03683
 Alpha virt. eigenvalues --   -0.03471  -0.02848
  Beta  occ. eigenvalues --   -1.64276  -1.21517  -1.16342  -0.93380  -0.84909
  Beta  occ. eigenvalues --   -0.77421  -0.71184  -0.70768  -0.70131  -0.68344
  Beta  occ. eigenvalues --   -0.63076
  Beta virt. eigenvalues --   -0.34308  -0.11494  -0.10610  -0.08251  -0.08130
  Beta virt. eigenvalues --   -0.07759  -0.05420  -0.05135  -0.04899  -0.04756
  Beta virt. eigenvalues --   -0.03255  -0.02994  -0.02572

 Mulliken charges and spin densities:
               1          2
     1  C   -0.112381   0.196074
     2  C   -0.136163   0.240178
     3  C   -0.112381   0.196075
     4  C   -0.136163   0.240178
     5  H    0.169179  -0.010893
     6  H    0.169179  -0.010893
     7  H    0.205093   0.042767
     8  H    0.205093   0.042767
     9  H    0.169179  -0.010893
    10  H    0.169179  -0.010893
    11  H    0.205093   0.042767
    12  H    0.205093   0.042766
 Sum of Mulliken charges =   1.00000   1.00000

 Dipole moment (field-independent basis, Debye):
    X=             -0.0000    Y=             -0.0000    Z=             -0.0000  Tot=              0.0000
 N-N= 8.328136453817D+01 E-N=-1.305683661664D+02  KE=-1.441898974113D+01
 1\1\GINC-GTX1080DELTA\FOpt\UAM1\ZDO\C4H8(1+,2)\MVEROT\16-Apr-2022\0\\#
 n AM1 Opt\\Optimisation de geometrie\\1,2\C,1.8259474846,2.9290710259,
 0.9295867032\C,0.7587710453,1.7965523607,0.977368029\C,1.7178191084,0.
 5704455991,0.952494889\C,2.7849958201,1.7029647513,0.9047162817\H,1.88
 81358168,3.571312091,1.8367017835\H,1.8219615506,3.5566038843,0.010138
 2047\H,0.1500202981,1.8153181461,0.0358666645\H,0.2197331979,1.8308106
 875,1.9600277165\H,1.6556308542,-0.0717939502,0.0453786842\H,1.7218050
 03,-0.0570884483,1.8719424353\H,3.3240366958,1.6687055096,-0.077941453
 9\H,3.3937431252,1.6841983431,1.8462200623\\Version=AM64L-G09RevD.01\S

 Normal termination of Gaussian 09 at Sat Apr 16 16:23:42 2022.
