 Gaussian 09, Revision D.01,
 Gaussian 09:  AM64L-G09RevD.01 24-Apr-2013

 ----------
 #n PM6 Opt
 ----------

 -------------------------
 Optimisation de geometrie
 -------------------------
 Symbolic Z-matrix:
 Charge =  0 Multiplicity = 1

 SCF Done:  E(RPM6) = -0.166072106998     A.U. after   14 cycles
 SCF Done:  E(RPM6) = -0.169245595640     A.U. after   12 cycles
 SCF Done:  E(RPM6) = -0.170183358377     A.U. after   12 cycles
 SCF Done:  E(RPM6) = -0.169412267484     A.U. after   12 cycles
 SCF Done:  E(RPM6) = -0.170471959012     A.U. after    9 cycles
 SCF Done:  E(RPM6) = -0.170699475247     A.U. after   11 cycles
 SCF Done:  E(RPM6) = -0.170692592448     A.U. after   12 cycles
 SCF Done:  E(RPM6) = -0.170800500437     A.U. after   11 cycles
 SCF Done:  E(RPM6) = -0.170815068371     A.U. after    9 cycles
 SCF Done:  E(RPM6) = -0.170820868342     A.U. after    9 cycles
 SCF Done:  E(RPM6) = -0.170822480671     A.U. after    9 cycles
 SCF Done:  E(RPM6) = -0.170823400380     A.U. after    9 cycles
 SCF Done:  E(RPM6) = -0.170823959738     A.U. after    9 cycles
 SCF Done:  E(RPM6) = -0.170824464264     A.U. after    9 cycles
 SCF Done:  E(RPM6) = -0.170824536100     A.U. after    8 cycles
 Optimization completed.
    -- Stationary point found.

                         Standard orientation:
 ---------------------------------------------------------------------
 Center     Atomic      Atomic             Coordinates (Angstroms)
 Number     Number       Type             X           Y           Z
 ---------------------------------------------------------------------
      1          6           0        0.845252    1.113699    0.267542
      2          6           0        1.689310   -0.049713   -0.269761
      3          8           0        1.260110   -1.305130    0.262217
      4          6           0       -0.565666    1.166465   -0.328025
      5          6           0       -1.565842    0.251020    0.378385
      6          8           0       -1.489729   -1.013981   -0.328362
      7          1           0        1.369795    2.066128    0.056850
      8          1           0        0.793884    1.036780    1.372448
      9          1           0        2.738324    0.018422    0.075883
     10          1           0        1.666164   -0.101049   -1.373057
     11          1           0        0.317603   -1.481478   -0.018001
     12          1           0       -0.536550    0.888034   -1.405061
     13          1           0       -0.942102    2.207721   -0.296747
     14          1           0       -2.601266    0.624384    0.289167
     15          1           0       -1.316657    0.078155    1.439881
     16          1           0       -2.070564   -1.673034    0.098955
 ---------------------------------------------------------------------

 The electronic state is 1-A.
 Alpha  occ. eigenvalues --   -1.11342  -1.07183  -1.01626  -0.92623  -0.82605
 Alpha  occ. eigenvalues --   -0.75132  -0.68122  -0.63650  -0.60181  -0.55667
 Alpha  occ. eigenvalues --   -0.55481  -0.52684  -0.49086  -0.48281  -0.45950
 Alpha  occ. eigenvalues --   -0.44407  -0.42100  -0.39679  -0.36859
 Alpha virt. eigenvalues --    0.08255   0.12068   0.13016   0.14115   0.15103
 Alpha virt. eigenvalues --    0.18738   0.19177   0.19316   0.20057   0.20348
 Alpha virt. eigenvalues --    0.20645   0.21601   0.22549   0.23026   0.24058

 Mulliken charges:
               1
     1  C   -0.327197
     2  C    0.028541
     3  O   -0.576286
     4  C   -0.280235
     5  C    0.006747
     6  O   -0.565643
     7  H    0.140794
     8  H    0.154798
     9  H    0.130945
    10  H    0.109029
    11  H    0.332869
    12  H    0.164990
    13  H    0.139933
    14  H    0.111273
    15  H    0.121079
    16  H    0.308362
 Sum of Mulliken charges =   0.00000

 Dipole moment (field-independent basis, Debye):
    X=             -2.1307    Y=              2.3514    Z=              0.4225  Tot=              3.2012
 N-N= 1.783030311943D+02 E-N=-3.103142638653D+02  KE=-2.198023785421D+01
 1\1\GINC-GTX1080DELTA\FOpt\RPM6\ZDO\C4H10O2\MVEROT\17-Apr-2022\0\\#n P
 M6 Opt\\Optimisation de geometrie\\0,1\C,1.6270386903,1.262905273,2.01
 23305676\C,1.100862308,2.3014187323,1.0126890687\O,1.530033781,3.62322
 50237,1.3472400922\C,3.1261379442,0.9820203393,1.8640677484\C,4.015328
 2687,1.9861031354,2.5979372518\O,4.2812682529,3.0363735589,1.632681122
 2\H,1.0610479104,0.3197616612,1.8827457578\H,1.4005577913,1.6106238212
 ,3.0405179333\H,-0.0019114803,2.3821852046,1.0563934645\H,1.414184159,
 2.0737886328,-0.0219342856\H,2.5272492449,3.669521237,1.310395428\H,3.
 4106896419,0.9834482929,0.7882401594\H,3.3499849943,-0.0381510952,2.23

 Normal termination of Gaussian 09 at Sun Apr 17 23:24:30 2022.
