 Gaussian 09, Revision D.01,
 Gaussian 09:  AM64L-G09RevD.01 24-Apr-2013

 ----------
 #n PM6 Opt
 ----------

 -------------------------
 Optimisation de geometrie
 -------------------------
 Symbolic Z-matrix:
 Charge =  0 Multiplicity = 1

 SCF Done:  E(RPM6) = -0.152915209297     A.U. after   13 cycles
 SCF Done:  E(RPM6) = -0.156106194984     A.U. after   11 cycles
 SCF Done:  E(RPM6) = -0.156441575742     A.U. after   11 cycles
 SCF Done:  E(RPM6) = -0.156479056679     A.U. after   10 cycles
 SCF Done:  E(RPM6) = -0.156503053489     A.U. after   11 cycles
 SCF Done:  E(RPM6) = -0.156522887695     A.U. after   11 cycles
 SCF Done:  E(RPM6) = -0.156551333504     A.U. after   11 cycles
 SCF Done:  E(RPM6) = -0.156627421505     A.U. after   11 cycles
 SCF Done:  E(RPM6) = -0.156777759235     A.U. after   12 cycles
 SCF Done:  E(RPM6) = -0.157782309496     A.U. after   12 cycles
 SCF Done:  E(RPM6) = -0.159862977956     A.U. after   11 cycles
 SCF Done:  E(RPM6) = -0.159893400609     A.U. after   11 cycles
 SCF Done:  E(RPM6) = -0.159914979681     A.U. after   11 cycles
 SCF Done:  E(RPM6) = -0.159941745065     A.U. after   11 cycles
 SCF Done:  E(RPM6) = -0.159945264734     A.U. after    9 cycles
 SCF Done:  E(RPM6) = -0.159949491970     A.U. after   11 cycles
 SCF Done:  E(RPM6) = -0.159954285258     A.U. after   11 cycles
 SCF Done:  E(RPM6) = -0.159959340261     A.U. after   11 cycles
 SCF Done:  E(RPM6) = -0.159961230138     A.U. after    9 cycles
 SCF Done:  E(RPM6) = -0.159961333577     A.U. after    8 cycles
 Optimization completed.
    -- Stationary point found.

                         Standard orientation:
 ---------------------------------------------------------------------
 Center     Atomic      Atomic             Coordinates (Angstroms)
 Number     Number       Type             X           Y           Z
 ---------------------------------------------------------------------
      1          6           0        0.993399   -0.295519    0.416792
      2          8           0        2.324759   -0.132967   -0.091037
      3          6           0        0.037807    0.677942   -0.281016
      4          6           0       -1.385526    0.541010    0.249728
      5          8           0       -1.852846   -0.728832   -0.257235
      6          1           0        1.114744   -0.071064    1.492523
      7          1           0        0.669323   -1.344349    0.285736
      8          1           0        2.368586   -0.397511   -1.030083
      9          1           0        0.038234    0.482572   -1.374046
     10          1           0        0.399823    1.717353   -0.157176
     11          1           0       -2.044415    1.339721   -0.135986
     12          1           0       -1.429221    0.521585    1.353022
     13          1           0       -2.766455   -0.894513    0.039164
 ---------------------------------------------------------------------

 The electronic state is 1-A.
 Alpha  occ. eigenvalues --   -1.10842  -1.09049  -1.00216  -0.87576  -0.77633
 Alpha  occ. eigenvalues --   -0.68433  -0.64629  -0.59702  -0.56461  -0.53100
 Alpha  occ. eigenvalues --   -0.50439  -0.49192  -0.45764  -0.43344  -0.39672
 Alpha  occ. eigenvalues --   -0.38207
 Alpha virt. eigenvalues --    0.08825   0.09836   0.13355   0.14222   0.18422
 Alpha virt. eigenvalues --    0.18835   0.19189   0.20147   0.20190   0.21153
 Alpha virt. eigenvalues --    0.22054   0.22602

 Mulliken charges:
               1
     1  C    0.026475
     2  O   -0.552913
     3  C   -0.362497
     4  C    0.021607
     5  O   -0.560698
     6  H    0.138037
     7  H    0.127417
     8  H    0.306118
     9  H    0.166373
    10  H    0.161526
    11  H    0.111584
    12  H    0.111600
    13  H    0.305371
 Sum of Mulliken charges =   0.00000

 Dipole moment (field-independent basis, Debye):
    X=             -2.4761    Y=              0.8958    Z=              0.2271  Tot=              2.6429
 N-N= 1.338755305154D+02 E-N=-2.291174314764D+02  KE=-1.786834549817D+01
 1\1\GINC-GTX1080DELTA\FOpt\RPM6\ZDO\C3H8O2\MVEROT\17-Apr-2022\0\\#n PM
 6 Opt\\Optimisation de geometrie\\0,1\C,1.3523532201,2.3984512045,1.45
 27637654\O,0.0039868592,2.337363702,0.9679879249\C,2.0112167362,1.0181
 564167,1.3610944224\C,3.4431789815,1.0463563958,1.8855033082\O,4.19013
 5868,1.7845558989,0.8930246467\H,1.219793382,2.7353442598,2.4973848266
 \H,1.9201469153,3.1564351003,0.8823999862\H,-0.0083723465,2.1371178178
 ,0.0122363975\H,2.018033015,0.6770850657,0.3044449023\H,1.4087391702,0
 .2737955285,1.9176161285\H,3.8695774601,0.0301479019,1.9652215835\H,3.
 5316663073,1.5653421556,2.8562593563\H,5.1268244316,1.8484785524,1.154

 Normal termination of Gaussian 09 at Sun Apr 17 23:36:53 2022.
