 Gaussian 09, Revision D.01,
 Gaussian 09:  AM64L-G09RevD.01 24-Apr-2013

 ------------------------------------
 #n ZINDO(NSTATE=10) pop=full gfinput
 ------------------------------------

 ----------
 UV-spectra
 ----------
 Symbolic Z-matrix:
 Charge =  0 Multiplicity = 1

                         Standard orientation:
 ---------------------------------------------------------------------
 Center     Atomic      Atomic             Coordinates (Angstroms)
 Number     Number       Type             X           Y           Z
 ---------------------------------------------------------------------
      1          6           0       -0.000000   -1.473627    0.000247
      2          6           0        1.261006   -0.702256    0.000028
      3          6           0       -1.261007   -0.702257    0.000027
      4          8           0        0.000000   -2.713225   -0.000331
      5          6           0       -0.000000    1.473631   -0.000403
      6          6           0       -1.261007    0.702257   -0.000091
      7          8           0        0.000001    2.713228    0.000293
      8          6           0        1.261007    0.702257   -0.000090
      9          6           0        2.477828   -1.394254    0.000106
     10          6           0       -2.477829    1.394254   -0.000082
     11          6           0        2.477829    1.394254   -0.000083
     12          6           0       -2.477829   -1.394255    0.000106
     13          6           0        3.686086   -0.696727    0.000103
     14          6           0        3.686087    0.696724    0.000008
     15          6           0       -3.686086   -0.696726    0.000102
     16          6           0       -3.686086    0.696725    0.000008
     17          1           0        2.466629   -2.497116    0.000243
     18          1           0       -2.466631    2.497116   -0.000220
     19          1           0        2.466636    2.497116   -0.000224
     20          1           0       -2.466634   -2.497117    0.000244
     21          1           0        4.637347   -1.250177    0.000193
     22          1           0        4.637349    1.250172   -0.000014
     23          1           0       -4.637347   -1.250176    0.000190
     24          1           0       -4.637348    1.250174   -0.000015
 ---------------------------------------------------------------------

 SCF Done:  E(RZINDO/S) =  -107.821404023     A.U. after   13 cycles

 Excitation energies and oscillator strengths:

 Excited State   1:      Singlet-A      2.6231 eV  472.66 nm  f=0.0000  <S**2>=0.000
      33 -> 40        -0.28202
      33 -> 43         0.22233
      34 -> 39         0.57590
      34 -> 44        -0.15959
 This state for optimization and/or second-order correction.
 Total Energy, E(CIS) =  -107.725006471
 Copying the excited state density for this state as the 1-particle RhoCI density.

 Excited State   2:      Singlet-A      2.6799 eV  462.65 nm  f=0.0000  <S**2>=0.000
      33 -> 39         0.56420
      33 -> 44        -0.16747
      34 -> 40        -0.29678
      34 -> 43         0.22686

 Excited State   3:      Singlet-A      3.8670 eV  320.62 nm  f=0.0000  <S**2>=0.000
      35 -> 41         0.10375
      37 -> 40        -0.10101
      38 -> 39         0.68002

 Excited State   4:      Singlet-A      4.0207 eV  308.37 nm  f=0.2561  <S**2>=0.000
      35 -> 42        -0.14670
      36 -> 41         0.20071
      37 -> 39         0.62251
      38 -> 40         0.19671

 Excited State   5:      Singlet-A      4.1210 eV  300.86 nm  f=0.0000  <S**2>=0.000
      35 -> 40         0.15799
      36 -> 39         0.61224
      37 -> 41         0.20866
      38 -> 42        -0.20569

 Excited State   6:      Singlet-A      4.5668 eV  271.49 nm  f=0.4003  <S**2>=0.000
      35 -> 39         0.63574
      36 -> 40        -0.21277
      37 -> 42         0.15393

 Excited State   7:      Singlet-A      5.1137 eV  242.46 nm  f=1.0254  <S**2>=0.000
      35 -> 42        -0.25992
      36 -> 41         0.16142
      37 -> 39        -0.29287
      37 -> 44         0.13933
      38 -> 40         0.53733

 Excited State   8:      Singlet-A      5.1875 eV  239.01 nm  f=0.0000  <S**2>=0.000
      35 -> 40         0.44140
      36 -> 39        -0.31358
      36 -> 44         0.17967
      37 -> 41         0.25381
      38 -> 42        -0.31244

 Excited State   9:      Singlet-A      5.4183 eV  228.82 nm  f=0.0000  <S**2>=0.000
      35 -> 41        -0.17916
      36 -> 42        -0.33064
      37 -> 40         0.55768
      38 -> 39         0.12992
      38 -> 44        -0.10631

 Excited State  10:      Singlet-A      5.4897 eV  225.85 nm  f=0.3426  <S**2>=0.000
      35 -> 39         0.27749
      36 -> 40         0.48849
      37 -> 42        -0.29496
      38 -> 41        -0.27038

 The electronic state is 1-A.
 Alpha  occ. eigenvalues --   -1.71746  -1.61918  -1.59381  -1.52997  -1.36545
 Alpha  occ. eigenvalues --   -1.25832  -1.21184  -1.19840  -1.04988  -0.99729
 Alpha  occ. eigenvalues --   -0.99363  -0.93342  -0.89229  -0.86177  -0.75897
 Alpha  occ. eigenvalues --   -0.69725  -0.66347  -0.66068  -0.64989  -0.59445
 Alpha  occ. eigenvalues --   -0.59313  -0.58480  -0.57710  -0.55822  -0.55374
 Alpha  occ. eigenvalues --   -0.51105  -0.50941  -0.49626  -0.47985  -0.46364
 Alpha  occ. eigenvalues --   -0.46353  -0.45716  -0.37510  -0.36637  -0.35489
 Alpha  occ. eigenvalues --   -0.35111  -0.34917  -0.34691
 Alpha virt. eigenvalues --   -0.06297  -0.01488   0.00425   0.01024   0.05027
 Alpha virt. eigenvalues --    0.05195   0.06317   0.09050   0.09231   0.09736
 Alpha virt. eigenvalues --    0.10829   0.11082   0.11663   0.12912   0.13198

 Mulliken charges:
               1
     1  C    0.320892
     2  C    0.011709
     3  C    0.011709
     4  O   -0.509360
     5  C    0.320892
     6  C    0.011709
     7  O   -0.509359
     8  C    0.011709
     9  C    0.001701
    10  C    0.001701
    11  C    0.001701
    12  C    0.001701
    13  C   -0.014644
    14  C   -0.014645
    15  C   -0.014645
    16  C   -0.014644
    17  H    0.055744
    18  H    0.055744
    19  H    0.055744
    20  H    0.055744
    21  H    0.039725
    22  H    0.039725
    23  H    0.039725
    24  H    0.039725
 Sum of Mulliken charges =   0.00000

 Dipole moment (field-independent basis, Debye):
    X=             -0.0000    Y=              0.0000    Z=             -0.0001  Tot=              0.0001
 N-N= 3.617035292752D+02 E-N= 0.000000000000D+00  KE=-8.797721957206D+02
 Orbital energies and kinetic energies (alpha):
                                 1                 2
   1         O                -1.717462        -12.964015
   2         O                -1.619179        -12.326629
   3         O                -1.593807        -12.917686
   4         O                -1.529968        -12.429081
   5         O                -1.365448        -12.537269
   6         O                -1.258317        -11.999773
   7         O                -1.211837        -11.795503

 Normal termination of Gaussian 09 at Mon Apr 11 21:42:08 2022.
