 Gaussian 09, Revision D.01,
 Gaussian 09:  AM64L-G09RevD.01 24-Apr-2013

 ----------
 #n AM1 Opt
 ----------

 ---------------------
 Geometry optimization
 ---------------------
 Symbolic Z-matrix:
 Charge =  0 Multiplicity = 1

 SCF Done:  E(RAM1) = -0.714342496963E-03 A.U. after   15 cycles
 SCF Done:  E(RAM1) = -0.610875625296E-02 A.U. after   15 cycles
 SCF Done:  E(RAM1) = -0.169521928852E-01 A.U. after   14 cycles
 SCF Done:  E(RAM1) = -0.174897529574E-01 A.U. after   14 cycles
 SCF Done:  E(RAM1) = -0.175945197853E-01 A.U. after   11 cycles
 SCF Done:  E(RAM1) = -0.176003192885E-01 A.U. after   11 cycles
 SCF Done:  E(RAM1) = -0.176012194726E-01 A.U. after   10 cycles
 Optimization completed.
    -- Stationary point found.

                         Standard orientation:
 ---------------------------------------------------------------------
 Center     Atomic      Atomic             Coordinates (Angstroms)
 Number     Number       Type             X           Y           Z
 ---------------------------------------------------------------------
      1          6           0       -0.418102   -1.398204    0.000015
      2          6           0       -1.432149   -0.339919    0.000012
      3          6           0        1.017738   -1.007752    0.000012
      4          8           0       -0.699796   -2.612023   -0.000046
      5          6           0        0.418099    1.398209    0.000021
      6          6           0        1.432149    0.339924    0.000013
      7          8           0        0.699785    2.612030   -0.000049
      8          6           0       -1.017740    1.007756    0.000012
      9          6           0       -2.831350   -0.628904    0.000006
     10          6           0        2.831354    0.628903    0.000006
     11          6           0       -1.943214    2.046879    0.000006
     12          6           0        1.943208   -2.046878    0.000006
     13          6           0       -3.757069    0.463604    0.000001
     14          6           0       -3.314345    1.766617    0.000002
     15          6           0        3.314339   -1.766621    0.000001
     16          6           0        3.757068   -0.463611    0.000001
     17          1           0       -1.592048    3.091478    0.000006
     18          1           0        1.592038   -3.091476    0.000004
     19          1           0       -4.838431    0.256046   -0.000003
     20          1           0       -4.038323    2.596559   -0.000003
     21          1           0        4.838430   -0.256056   -0.000004
     22          1           0        4.038314   -2.596566   -0.000003
     23          7           0       -3.338444   -1.898656    0.000005
     24          7           0        3.338464    1.898649    0.000005
     25          1           0        2.742484    2.691020    0.000004
     26          1           0        4.317162    2.029549   -0.000001
     27          1           0       -2.742451   -2.691018    0.000002
     28          1           0       -4.317140   -2.029571   -0.000004
 ---------------------------------------------------------------------

 The electronic state is 1-A.
 Alpha  occ. eigenvalues --   -1.52324  -1.45817  -1.43696  -1.38981  -1.32047
 Alpha  occ. eigenvalues --   -1.29370  -1.23485  -1.14765  -1.09536  -1.08339
 Alpha  occ. eigenvalues --   -0.97119  -0.92089  -0.88968  -0.82250  -0.78969
 Alpha  occ. eigenvalues --   -0.75271  -0.69178  -0.66921  -0.65625  -0.64846
 Alpha  occ. eigenvalues --   -0.61976  -0.61916  -0.58128  -0.58065  -0.57412
 Alpha  occ. eigenvalues --   -0.57028  -0.56058  -0.53416  -0.53373  -0.52603
 Alpha  occ. eigenvalues --   -0.51830  -0.49569  -0.47989  -0.47669  -0.47097
 Alpha  occ. eigenvalues --   -0.45765  -0.43413  -0.43372  -0.40199  -0.38360
 Alpha  occ. eigenvalues --   -0.37162  -0.36678  -0.31709  -0.31089
 Alpha virt. eigenvalues --   -0.04023   0.00324   0.00573   0.01839   0.06004
 Alpha virt. eigenvalues --    0.06374   0.09012   0.09534   0.09633   0.10796
 Alpha virt. eigenvalues --    0.11116   0.11634   0.13054   0.13583   0.14084

 Mulliken charges:
               1
     1  C    0.320524
     2  C   -0.213408
     3  C   -0.049407
     4  O   -0.338530
     5  C    0.320524
     6  C   -0.213405
     7  O   -0.338528
     8  C   -0.049406
     9  C    0.180744
    10  C    0.180744
    11  C   -0.154442
    12  C   -0.154442
    13  C   -0.217321
    14  C   -0.062612
    15  C   -0.062613
    16  C   -0.217321
    17  H    0.160767
    18  H    0.160767
    19  H    0.134591
    20  H    0.137095
    21  H    0.134591
    22  H    0.137095
    23  N   -0.381585
    24  N   -0.381585
    25  H    0.260449
    26  H    0.223132
    27  H    0.260451
    28  H    0.223131
 Sum of Mulliken charges =  -0.00000

 Dipole moment (field-independent basis, Debye):
    X=              0.0000    Y=             -0.0000    Z=              0.0002  Tot=              0.0002
 N-N= 6.654025535443D+02 E-N=-1.203822768658D+03  KE=-6.218810980168D+01
 1\1\GINC-GTX1080DELTA\FOpt\RAM1\ZDO\C14H10N2O2\MVEROT\12-Apr-2022\0\\#
 n AM1 Opt\\Geometry optimization\\0,1\C,-0.0121709487,1.4702690527,0.0
 003395343\C,1.2678680421,0.7562959901,0.0002038382\C,-1.2701272516,0.6
 755151173,0.0001390597\O,-0.099217353,2.7133020085,0.0005500528\C,0.00
 93868576,-1.4484109017,-0.0002943024\C,-1.2706556112,-0.734437951,-0.0
 00169308\O,0.096441292,-2.6914433645,-0.0006357884\C,1.2673421959,-0.6
 536556631,-0.0001055487\C,2.5205862101,1.4432980722,0.0003713782\C,-2.
 5233792687,-1.4214349858,-0.000350756\C,2.4570852406,-1.3753127728,-0.
 0002479153\C,-2.4598675272,1.3971762985,0.0002695126\C,3.7262365867,0.

 Normal termination of Gaussian 09 at Tue Apr 12 01:07:05 2022.
