 Gaussian 09, Revision D.01,
 Gaussian 09:  AM64L-G09RevD.01 24-Apr-2013

 ----------------------
 #n SP pop=full gfinput
 ----------------------

 ----------
 UV-spectra
 ----------
 Symbolic Z-matrix:
 Charge =  0 Multiplicity = 1

                         Standard orientation:
 ---------------------------------------------------------------------
 Center     Atomic      Atomic             Coordinates (Angstroms)
 Number     Number       Type             X           Y           Z
 ---------------------------------------------------------------------
      1          8           0        0.000000    0.000000    2.688495
      2          8           0        0.000000    0.000000   -2.688495
      3          6           0        0.000000    0.000000    1.452908
      4          6           0        0.000000    0.000000   -1.452908
      5          6           0        0.000000    1.254776    0.669060
      6          6           0       -0.000000   -1.254776    0.669060
      7          6           0        0.000000    1.254776   -0.669060
      8          6           0       -0.000000   -1.254776   -0.669060
      9          1           0        0.000000    2.187230    1.257835
     10          1           0       -0.000000   -2.187230    1.257835
     11          1           0        0.000000    2.187230   -1.257835
     12          1           0       -0.000000   -2.187230   -1.257835
 ---------------------------------------------------------------------

 SCF Done:  E(RHF) =  -374.347968480     A.U. after   11 cycles

 The electronic state is 1-AG.
 Alpha  occ. eigenvalues --  -20.29569 -20.29569 -11.13756 -11.13752 -11.05942
 Alpha  occ. eigenvalues --  -11.05930 -11.05863 -11.05862  -1.33331  -1.33069
 Alpha  occ. eigenvalues --   -1.08208  -0.99705  -0.88763  -0.79611  -0.75332
 Alpha  occ. eigenvalues --   -0.63482  -0.62943  -0.59829  -0.56677  -0.52728
 Alpha  occ. eigenvalues --   -0.52191  -0.50399  -0.49507  -0.45613  -0.36202
 Alpha  occ. eigenvalues --   -0.34426  -0.33385  -0.29509
 Alpha virt. eigenvalues --    0.13273   0.28220   0.32517   0.48218   0.56940
 Alpha virt. eigenvalues --    0.57543   0.61105   0.62490   0.69867   0.77180
 Alpha virt. eigenvalues --    0.78895   0.85289   0.88729   0.94674   1.04379

 Mulliken charges:
               1
     1  O   -0.199208
     2  O   -0.199208
     3  C    0.175548
     4  C    0.175548
     5  C   -0.067671
     6  C   -0.067671
     7  C   -0.067671
     8  C   -0.067671
     9  H    0.079501
    10  H    0.079501
    11  H    0.079501
    12  H    0.079501
 Sum of Mulliken charges =   0.00000

 Dipole moment (field-independent basis, Debye):
    X=             -0.0000    Y=             -0.0000    Z=             -0.0000  Tot=              0.0000
 Quadrupole moment (field-independent basis, Debye-Ang):
   XX=            -40.6623   YY=            -37.4694   ZZ=            -53.2662
   XY=              0.0000   XZ=              0.0000   YZ=              0.0000

 Normal termination of Gaussian 09 at Mon Apr 11 20:40:59 2022.
