 Gaussian 16, Revision B.01,
 Gaussian 16:  ES64L-G16RevB.01 20-Dec-2017

 -----------------------------
 #n b3lyp/aug-cc-pvtz opt freq
 -----------------------------

 -------------------------------------------------
 Energy of chloromethane using the AM1 hamiltonian
 -------------------------------------------------
 Symbolic Z-matrix:
 Charge =  0 Multiplicity = 1

 SCF Done:  E(RB3LYP) =  -500.154736988     A.U. after    9 cycles
 SCF Done:  E(RB3LYP) =  -500.164320512     A.U. after    9 cycles
 SCF Done:  E(RB3LYP) =  -500.165533374     A.U. after    8 cycles
 SCF Done:  E(RB3LYP) =  -500.165803727     A.U. after    8 cycles
 SCF Done:  E(RB3LYP) =  -500.165806056     A.U. after    6 cycles
 Optimization completed.
    -- Stationary point found.
 Normal termination of Gaussian 16 at Fri Jan 29 22:04:23 2021.

 ----------------------------------------------------------------------
 #N Geom=AllCheck Guess=TCheck SCRF=Check GenChk RB3LYP/Aug-CC-pVTZ Fre
 q
 ----------------------------------------------------------------------

 Structure from the checkpoint file:  "/dev/shm/edumont/8178217/Gau-45955.chk"
 -------------------------------------------------
 Energy of chloromethane using the AM1 hamiltonian
 -------------------------------------------------
 Charge =  0 Multiplicity = 1

                         Standard orientation:
 ---------------------------------------------------------------------
 Center     Atomic      Atomic             Coordinates (Angstroms)
 Number     Number       Type             X           Y           Z
 ---------------------------------------------------------------------
      1          6           0       -0.000000    0.000000   -1.139099
      2          1           0       -0.000000    1.030320   -1.477574
      3          1           0       -0.892283   -0.515160   -1.477574
      4          1           0        0.892283   -0.515160   -1.477574
      5         17           0        0.000000   -0.000000    0.662783
 ---------------------------------------------------------------------

 SCF Done:  E(RB3LYP) =  -500.165806056     A.U. after    1 cycles

 The electronic state is 1-A1.
 Alpha  occ. eigenvalues -- -101.55308 -10.23383  -9.45737  -7.22067  -7.21149
 Alpha  occ. eigenvalues --   -7.21149  -0.85267  -0.68429  -0.45640  -0.45640
 Alpha  occ. eigenvalues --   -0.41577  -0.30327  -0.30327
 Alpha virt. eigenvalues --   -0.01798   0.00182   0.01896   0.01896   0.04983
 Alpha virt. eigenvalues --    0.07497   0.08246   0.08246   0.08767   0.08880
 Alpha virt. eigenvalues --    0.08880   0.11290   0.11290   0.17164   0.18762

 Mulliken charges:
               1
     1  C   -0.510866
     2  H    0.231818
     3  H    0.231818
     4  H    0.231818
     5  Cl  -0.184588
 Sum of Mulliken charges =  -0.00000

 Dipole moment (field-independent basis, Debye):
    X=              0.0000    Y=              0.0000    Z=             -1.9870  Tot=              1.9870
 Quadrupole moment (field-independent basis, Debye-Ang):
   XX=            -20.0739   YY=            -20.0739   ZZ=            -18.3374
   XY=             -0.0000   XZ=              0.0000   YZ=              0.0000

  Exact polarizability:  26.516  -0.000  26.518   0.000   0.000  36.957
 Approx polarizability:  36.975   0.000  36.975  -0.000  -0.000  51.865

                      1                      2                      3
                     A1                      E                      E
 Frequencies --    706.7427              1025.6137              1025.6138
 Red. masses --      7.4711                 1.1652                 1.1652
 Frc consts  --      2.1987                 0.7222                 0.7222
 IR Inten    --     27.1210                 2.0595                 2.0596

                      4                      5                      6
                     A1                      E                      E
 Frequencies --   1375.4435              1482.7256              1482.7257
 Red. masses --      1.1263                 1.0569                 1.0569
 Frc consts  --      1.2554                 1.3690                 1.3690
 IR Inten    --     11.7696                 6.0789                 6.0792

                      7                      8                      9
                     A1                      E                      E
 Frequencies --   3072.7558              3167.4620              3167.4620
 Red. masses --      1.0260                 1.1092                 1.1092
 Frc consts  --      5.7075                 6.5564                 6.5564
 IR Inten    --     23.1551                 3.9266                 3.9259

 - Thermochemistry -
 -------------------
 Temperature   298.150 Kelvin.  Pressure   1.00000 Atm.
 Atom     1 has atomic number  6 and mass  12.00000

 Molecular mass:    49.99233 amu.
 Principal axes and moments of inertia in atomic units:
                           1         2         3
     Eigenvalues --    11.46168 137.94779 137.94779
           X            0.00000  -0.11509   0.99335
           Y           -0.00000   0.99335   0.11509
           Z            1.00000   0.00000  -0.00000
 This molecule is a prolate symmetric top.
 Rotational symmetry number  3.
 Rotational temperatures (Kelvin)      7.55683     0.62787     0.62787
 Rotational constants (GHZ):         157.45875    13.08278    13.08278
 Zero-point vibrational energy      98731.1 (Joules/Mol)
                                   23.59729 (Kcal/Mol)
 Vibrational temperatures:   1016.85  1475.63  1475.63  1978.96  2133.31
          (Kelvin)           2133.31  4421.01  4557.27  4557.27

 Zero-point correction=                           0.037605 (Hartree/Particle)
 Thermal correction to Energy=                    0.040633
 Thermal correction to Enthalpy=                  0.041577
 Thermal correction to Gibbs Free Energy=         0.014971
 Sum of electronic and zero-point Energies=           -500.128201
 Sum of electronic and thermal Energies=              -500.125173
 Sum of electronic and thermal Enthalpies=            -500.124229
 Sum of electronic and thermal Free Energies=         -500.150835

                     E (Thermal)             CV                S
                      KCal/Mol        Cal/Mol-Kelvin    Cal/Mol-Kelvin
 Total                   25.497              7.752             55.997
 Electronic               0.000              0.000              0.000
 Translational            0.889              2.981             37.651
 Rotational               0.889              2.981             17.834
 Vibrational             23.720              1.791              0.512

 Optimization completed.
    -- Stationary point found.
 Normal termination of Gaussian 16 at Fri Jan 29 22:08:29 2021.
