 Gaussian 09, Revision D.01,
 Gaussian 09:  AM64L-G09RevD.01 24-Apr-2013

 -----------------
 #n AM1 freq=RAMAN
 -----------------

 ----------------------
 Raman spectra of CH3Cl
 ----------------------
 Symbolic Z-matrix:
 Charge =  0 Multiplicity = 1

                         Standard orientation:
 ---------------------------------------------------------------------
 Center     Atomic      Atomic             Coordinates (Angstroms)
 Number     Number       Type             X           Y           Z
 ---------------------------------------------------------------------
      1          6           0        0.000000    0.000000   -1.098070
      2          1           0        0.000000    1.055442   -1.446492
      3          1           0       -0.914040   -0.527721   -1.446492
      4          1           0        0.914040   -0.527721   -1.446492
      5         17           0        0.000000    0.000000    0.642817
 ---------------------------------------------------------------------

 SCF Done:  E(RAM1) = -0.302438609063E-01 A.U. after   11 cycles

 The electronic state is 1-A1.
 Alpha  occ. eigenvalues --   -1.36967  -1.06015  -0.55679  -0.55679  -0.54638
 Alpha  occ. eigenvalues --   -0.41666  -0.41666
 Alpha virt. eigenvalues --    0.05877   0.14206   0.14206   0.15422

 Mulliken charges:
               1
     1  C   -0.177582
     2  H    0.098015
     3  H    0.098015
     4  H    0.098015
     5  Cl  -0.116464
 Sum of Mulliken charges =  -0.00000

 Dipole moment (field-independent basis, Debye):
    X=             -0.0000    Y=              0.0000    Z=             -1.5119  Tot=              1.5119
 N-N= 3.686539022363D+01 E-N=-5.558692576771D+01  KE=-8.358122671707D+00
 Symmetry A'   KE=-6.739187228717D+00
 Symmetry A"   KE=-1.618935442990D+00
  Exact polarizability:   8.815  -0.000   8.815  -0.000   0.000  22.459
 Approx polarizability:   4.902  -0.000   4.902  -0.000   0.000  14.547
 Calling FoFJK, ICntrl=    100127 FMM=F ISym2X=1 I1Cent= 0 IOpClX= 0 NMat=1 NMatS=1 NMatT=0.
 Full mass-weighted force constant matrix:
 Low frequencies ---  -23.7168  -12.6535  -12.6535   -0.0001    0.0091    0.0091
 Low frequencies ---  837.7522  984.2306  984.2306
 Diagonal vibrational polarizability:

                      1                      2                      3
                     A1                      E                      E
 Frequencies --    837.7522               984.2306               984.2306
 Red. masses --      7.1610                 1.1593                 1.1593
 Frc consts  --      2.9611                 0.6616                 0.6616
 IR Inten    --     54.9640                 0.0664                 0.0664
 Raman Activ --     25.4009                16.1689                16.1689

                      4                      5                      6
                     A1                      E                      E
 Frequencies --   1345.6198              1368.0036              1368.0036
 Red. masses --      1.1375                 1.0814                 1.0814
 Frc consts  --      1.2136                 1.1924                 1.1924
 IR Inten    --     15.2447                 3.1409                 3.1409
 Raman Activ --      1.9275                40.3998                40.3998

                      7                      8                      9
                      E                      E                     A1
 Frequencies --   3075.8211              3075.8211              3150.2880
 Red. masses --      1.0971                 1.0971                 1.0229
 Frc consts  --      6.1155                 6.1155                 5.9809
 IR Inten    --      6.3445                 6.3445                 1.1305
 Raman Activ --    108.4206               108.4206               154.7564

 - Thermochemistry -
 -------------------
 Temperature   298.150 Kelvin.  Pressure   1.00000 Atm.
 Atom     1 has atomic number  6 and mass  12.00000

 Molecular mass:    49.99233 amu.
 Principal axes and moments of inertia in atomic units:
                           1         2         3
     Eigenvalues --    12.02743 130.14036 130.14036
           X            0.00000   0.59851   0.80112
           Y            0.00000   0.80112  -0.59851
           Z            1.00000  -0.00000   0.00000
 This molecule is a prolate symmetric top.
 Rotational symmetry number  3.
 Rotational temperatures (Kelvin)      7.20136     0.66554     0.66554
 Rotational constants (GHZ):         150.05209    13.86765    13.86765
 Zero-point vibrational energy      96836.3 (Joules/Mol)
                                   23.14444 (Kcal/Mol)
 Vibrational temperatures:   1205.34  1416.09  1416.09  1936.04  1968.25
          (Kelvin)           1968.25  4425.41  4425.41  4532.56

 Zero-point correction=                           0.036883 (Hartree/Particle)
 Thermal correction to Energy=                    0.039888
 Thermal correction to Enthalpy=                  0.040833
 Thermal correction to Gibbs Free Energy=         0.014292
 Sum of electronic and zero-point Energies=              0.006639
 Sum of electronic and thermal Energies=                 0.009644
 Sum of electronic and thermal Enthalpies=               0.010589
 Sum of electronic and thermal Free Energies=           -0.015952

                     E (Thermal)             CV                S
                      KCal/Mol        Cal/Mol-Kelvin    Cal/Mol-Kelvin
 Total                   25.030              7.705             55.859
 Electronic               0.000              0.000              0.000
 Translational            0.889              2.981             37.651
 Rotational               0.889              2.981             17.766
 Vibrational             23.253              1.744              0.442

 Optimization completed.
    -- Stationary point found.
 Normal termination of Gaussian 09 at Mon Apr 11 13:16:47 2022.
