 Gaussian 16, Revision B.01,
 Gaussian 16:  ES64L-G16RevB.01 20-Dec-2017

 ------------------------------------
 #n b3lyp/aug-cc-pvtz opt freq=anharm
 ------------------------------------

 -------------------------------------------------
 Energy of chloromethane using the AM1 hamiltonian
 -------------------------------------------------
 Symbolic Z-matrix:
 Charge =  0 Multiplicity = 1

 SCF Done:  E(RB3LYP) =  -500.154736988     A.U. after    9 cycles
 SCF Done:  E(RB3LYP) =  -500.164320512     A.U. after    9 cycles
 SCF Done:  E(RB3LYP) =  -500.165533374     A.U. after    8 cycles
 SCF Done:  E(RB3LYP) =  -500.165803727     A.U. after    8 cycles
 SCF Done:  E(RB3LYP) =  -500.165806056     A.U. after    6 cycles
 Optimization completed.
    -- Stationary point found.
 Normal termination of Gaussian 16 at Fri Jan 29 22:07:22 2021.

 ----------------------------------------------------------------------
 #N Geom=AllCheck Guess=TCheck SCRF=Check GenChk RB3LYP/Aug-CC-pVTZ Fre
 q
 ----------------------------------------------------------------------

 Structure from the checkpoint file:  "/dev/shm/edumont/8178222/Gau-60145.chk"
 -------------------------------------------------
 Energy of chloromethane using the AM1 hamiltonian
 -------------------------------------------------
 Charge =  0 Multiplicity = 1

                         Standard orientation:
 ---------------------------------------------------------------------
 Center     Atomic      Atomic             Coordinates (Angstroms)
 Number     Number       Type             X           Y           Z
 ---------------------------------------------------------------------
      1          6           0       -0.000000    0.000000   -1.139099
      2          1           0       -0.000000    1.030320   -1.477574
      3          1           0       -0.892283   -0.515160   -1.477574
      4          1           0        0.892283   -0.515160   -1.477574
      5         17           0        0.000000   -0.000000    0.662783
 ---------------------------------------------------------------------

 SCF Done:  E(RB3LYP) =  -500.165806056     A.U. after    1 cycles
 SCF Done:  E(RB3LYP) =  -500.165803695     A.U. after    6 cycles
 SCF Done:  E(RB3LYP) =  -500.165801577     A.U. after    6 cycles
 SCF Done:  E(RB3LYP) =  -500.165798905     A.U. after    7 cycles
 SCF Done:  E(RB3LYP) =  -500.165798903     A.U. after    7 cycles
 SCF Done:  E(RB3LYP) =  -500.165791139     A.U. after    7 cycles
 SCF Done:  E(RB3LYP) =  -500.165791173     A.U. after    7 cycles
 SCF Done:  E(RB3LYP) =  -500.165791156     A.U. after    7 cycles
 SCF Done:  E(RB3LYP) =  -500.165791156     A.U. after    7 cycles
 SCF Done:  E(RB3LYP) =  -500.165742231     A.U. after    7 cycles
 SCF Done:  E(RB3LYP) =  -500.165742183     A.U. after    7 cycles
 SCF Done:  E(RB3LYP) =  -500.165738792     A.U. after    7 cycles
 SCF Done:  E(RB3LYP) =  -500.165737625     A.U. after    7 cycles
 SCF Done:  E(RB3LYP) =  -500.165738209     A.U. after    7 cycles
 SCF Done:  E(RB3LYP) =  -500.165738209     A.U. after    7 cycles

 Alpha  occ. eigenvalues -- -101.55309 -10.23382  -9.45737  -7.22067  -7.21149
 Alpha  occ. eigenvalues --   -7.21149  -0.85267  -0.68431  -0.45737  -0.45545
 Alpha  occ. eigenvalues --   -0.41577  -0.30340  -0.30315
 Alpha virt. eigenvalues --   -0.01799   0.00182   0.01888   0.01904   0.04983
 Alpha virt. eigenvalues --    0.07496   0.08244   0.08247   0.08766   0.08878
 Alpha virt. eigenvalues --    0.08882   0.11228   0.11351   0.17163   0.18740

 Mulliken charges:
               1
     1  C   -0.510769
     2  H    0.231866
     3  H    0.232418
     4  H    0.231098
     5  Cl  -0.184613
 Sum of Mulliken charges =  -0.00000

 Dipole moment (field-independent basis, Debye):
    X=             -0.0030    Y=              0.0001    Z=             -1.9869  Tot=              1.9869
 Quadrupole moment (field-independent basis, Debye-Ang):
   XX=            -20.0739   YY=            -20.0739   ZZ=            -18.3375
   XY=             -0.0043   XZ=              0.0079   YZ=             -0.0001

  Exact polarizability:  26.517  -0.066  26.517  -0.085   0.000  36.957
 Approx polarizability:  36.977  -0.099  36.976  -0.087   0.001  51.866

                      1                      2                      3
                     A1                      E                      E
 Frequencies --    706.7437              1025.6080              1025.6080
 Red. masses --      7.4711                 1.1652                 1.1652
 Frc consts  --      2.1987                 0.7221                 0.7221
 IR Inten    --     27.1222                 2.0595                 2.0595

                      4                      5                      6
                     A1                      E                      E
 Frequencies --   1375.4442              1482.7256              1482.7256
 Red. masses --      1.1263                 1.0569                 1.0569
 Frc consts  --      1.2554                 1.3690                 1.3690
 IR Inten    --     11.7677                 6.0787                 6.0787

                      7                      8                      9
                     A1                      E                      E
 Frequencies --   3072.7564              3167.4627              3167.4627
 Red. masses --      1.0260                 1.1092                 1.1092
 Frc consts  --      5.7075                 6.5564                 6.5564
 IR Inten    --     23.1545                 3.9268                 3.9269

 - Thermochemistry -
 -------------------
 Temperature   298.150 Kelvin.  Pressure   1.00000 Atm.
 Atom     1 has atomic number  6 and mass  12.00000

 Molecular mass:    49.99233 amu.
 Principal axes and moments of inertia in atomic units:
                           1         2         3
     Eigenvalues --    11.46168 137.94779 137.94779
           X            0.00000  -0.11509   0.99335
           Y           -0.00000   0.99335   0.11509
           Z            1.00000   0.00000  -0.00000
 This molecule is a prolate symmetric top.
 Rotational symmetry number  3.
 Rotational temperatures (Kelvin)      7.55683     0.62787     0.62787
 Rotational constants (GHZ):         157.45875    13.08278    13.08278
 Zero-point vibrational energy      98731.0 (Joules/Mol)
                                   23.59728 (Kcal/Mol)
 Vibrational temperatures:   1016.85  1475.62  1475.62  1978.96  2133.31
          (Kelvin)           2133.31  4421.01  4557.27  4557.27

 Zero-point correction=                           0.037605 (Hartree/Particle)
 Thermal correction to Energy=                    0.040633
 Thermal correction to Enthalpy=                  0.041577
 Thermal correction to Gibbs Free Energy=         0.014971
 Sum of electronic and zero-point Energies=           -500.128201
 Sum of electronic and thermal Energies=              -500.125173
 Sum of electronic and thermal Enthalpies=            -500.124229
 Sum of electronic and thermal Free Energies=         -500.150835

                     E (Thermal)             CV                S
                      KCal/Mol        Cal/Mol-Kelvin    Cal/Mol-Kelvin
 Total                   25.497              7.752             55.997
 Electronic               0.000              0.000              0.000
 Translational            0.889              2.981             37.651
 Rotational               0.889              2.981             17.834
 Vibrational             23.720              1.791              0.512

 Optimization completed.
    -- Stationary point found.
 Normal termination of Gaussian 16 at Sat Jan 30 00:51:48 2021.
