 Gaussian 09, Revision D.01,
 Gaussian 09:  AM64L-G09RevD.01 24-Apr-2013

 ---------------
 # hf/6-31G* opt
 ---------------

 -------------------------
 Optimisation de geometrie
 -------------------------
 Symbolic Z-matrix:
 Charge =  0 Multiplicity = 1

 SCF Done:  E(RHF) =  -228.923211536     A.U. after   12 cycles
 SCF Done:  E(RHF) =  -228.925615775     A.U. after   10 cycles
 SCF Done:  E(RHF) =  -228.925695814     A.U. after   10 cycles
 SCF Done:  E(RHF) =  -228.925717700     A.U. after    9 cycles
 SCF Done:  E(RHF) =  -228.925723605     A.U. after    9 cycles
 SCF Done:  E(RHF) =  -228.925725719     A.U. after    9 cycles
 SCF Done:  E(RHF) =  -228.925726441     A.U. after    8 cycles
 SCF Done:  E(RHF) =  -228.925726641     A.U. after    8 cycles
 Optimization completed.
    -- Stationary point found.

                         Standard orientation:
 ---------------------------------------------------------------------
 Center     Atomic      Atomic             Coordinates (Angstroms)
 Number     Number       Type             X           Y           Z
 ---------------------------------------------------------------------
      1          6           0        0.684139    0.593845   -0.262197
      2          8           0        1.319627   -0.570582    0.208917
      3          6           0       -0.732907    0.562530    0.269334
      4          8           0       -1.424100   -0.560073   -0.193320
      5          1           0        0.663856    0.607974   -1.348553
      6          1           0        1.198018    1.486788    0.087272
      7          1           0        2.157879   -0.680558   -0.216372
      8          1           0       -1.275650    1.435129   -0.071891
      9          1           0       -0.706480    0.583977    1.356637
     10          1           0       -0.909232   -1.326321    0.025313
 ---------------------------------------------------------------------

 The electronic state is 1-A.
 Alpha  occ. eigenvalues --  -20.56973 -20.54806 -11.27624 -11.26798  -1.38248
 Alpha  occ. eigenvalues --   -1.35044  -1.00197  -0.84314  -0.72892  -0.67813
 Alpha  occ. eigenvalues --   -0.64896  -0.60337  -0.57455  -0.53109  -0.48984
 Alpha  occ. eigenvalues --   -0.45423  -0.43204
 Alpha virt. eigenvalues --    0.21497   0.26945   0.27509   0.31295   0.31743
 Alpha virt. eigenvalues --    0.33893   0.39411   0.41704   0.42190   0.75370
 Alpha virt. eigenvalues --    0.80739   0.80812   0.81777   0.90341   0.91259

 Mulliken charges:
               1
     1  C   -0.024448
     2  O   -0.755449
     3  C    0.006506
     4  O   -0.745770
     5  H    0.154534
     6  H    0.143560
     7  H    0.447340
     8  H    0.166105
     9  H    0.152921
    10  H    0.454699
 Sum of Mulliken charges =  -0.00000

 Dipole moment (field-independent basis, Debye):
    X=              2.4659    Y=              0.9761    Z=             -0.4238  Tot=              2.6857
 Quadrupole moment (field-independent basis, Debye-Ang):
   XX=            -25.0146   YY=            -22.3713   ZZ=            -25.3105
   XY=             -1.1670   XZ=             -3.2678   YZ=              0.1885

 Normal termination of Gaussian 09 at Sun Apr 17 23:24:54 2022.
