 Gaussian 09, Revision D.01,
 Gaussian 09:  AM64L-G09RevD.01 24-Apr-2013

 ---------------
 #n AM1 Opt freq
 ---------------

 -------------------------
 Optimisation de geometrie
 -------------------------
 Symbolic Z-matrix:
 Charge =  0 Multiplicity = 1

 SCF Done:  E(RAM1) =  0.140604750729E-02 A.U. after   11 cycles
 SCF Done:  E(RAM1) = -0.149350703279E-02 A.U. after   10 cycles
 SCF Done:  E(RAM1) = -0.190480046713E-02 A.U. after    9 cycles
 SCF Done:  E(RAM1) = -0.195677884716E-02 A.U. after    9 cycles
 SCF Done:  E(RAM1) = -0.195751413962E-02 A.U. after    7 cycles
 Optimization completed.
    -- Stationary point found.
 Normal termination of Gaussian 09 at Sat Apr 16 11:43:03 2022.

 -------------------------------------------------------------
 #N Geom=AllCheck Guess=TCheck SCRF=Check GenChk RAM1/ZDO Freq
 -------------------------------------------------------------

 Structure from the checkpoint file:  "2-methyl-1-Propene-opt.chk"
 -------------------------
 Optimisation de geometrie
 -------------------------
 Charge =  0 Multiplicity = 1

                         Standard orientation:
 ---------------------------------------------------------------------
 Center     Atomic      Atomic             Coordinates (Angstroms)
 Number     Number       Type             X           Y           Z
 ---------------------------------------------------------------------
      1          6           0       -1.252188   -0.677991    0.000003
      2          6           0       -0.000000    0.117600   -0.000026
      3          6           0        1.252203   -0.677965    0.000002
      4          6           0       -0.000016    1.453823   -0.000005
      5          1           0       -1.291455   -1.332374   -0.906430
      6          1           0       -1.290283   -1.334246    0.905127
      7          1           0       -2.156178   -0.021543    0.001257
      8          1           0        1.291681   -1.331956    0.906711
      9          1           0        1.290116   -1.334611   -0.904843
     10          1           0        2.156180   -0.021499   -0.001728
     11          1           0        0.926460    2.041726   -0.000039
     12          1           0       -0.926509    2.041702    0.000096
 ---------------------------------------------------------------------

 SCF Done:  E(RAM1) = -0.195751413958E-02 A.U. after    2 cycles

 The electronic state is 1-A.
 Alpha  occ. eigenvalues --   -1.34289  -1.03356  -1.01973  -0.70971  -0.56568
 Alpha  occ. eigenvalues --   -0.55305  -0.54477  -0.47680  -0.46035  -0.45949
 Alpha  occ. eigenvalues --   -0.43886  -0.35543
 Alpha virt. eigenvalues --    0.04752   0.14703   0.15121   0.16409   0.16474
 Alpha virt. eigenvalues --    0.17199   0.17356   0.18065   0.18134   0.18834
 Alpha virt. eigenvalues --    0.21039   0.22080

 Mulliken charges:
               1
     1  C   -0.183811
     2  C   -0.107176
     3  C   -0.183811
     4  C   -0.227814
     5  H    0.081007
     6  H    0.080997
     7  H    0.078090
     8  H    0.081009
     9  H    0.080994
    10  H    0.078090
    11  H    0.111212
    12  H    0.111212
 Sum of Mulliken charges =   0.00000

 Dipole moment (field-independent basis, Debye):
    X=              0.0000    Y=             -0.3562    Z=              0.0001  Tot=              0.3562
 N-N= 8.057833398441D+01 E-N=-1.304172610088D+02  KE=-1.482266188184D+01
  Exact polarizability:  31.405  -0.000  51.911   0.001  -0.000  20.407
 Approx polarizability:  18.786  -0.000  35.793   0.001  -0.000  13.005
 Calling FoFJK, ICntrl=    100127 FMM=F ISym2X=0 I1Cent= 0 IOpClX= 0 NMat=1 NMatS=1 NMatT=0.
 Full mass-weighted force constant matrix:
 Low frequencies ---   -6.9883   -0.0386   -0.0261    0.0005    3.4849    6.0435
 Low frequencies ---   62.8786  101.2696  411.5893
 Diagonal vibrational polarizability:
        0.0998308       0.2644371       3.5168612
 Harmonic frequencies (cm**-1), IR intensities (KM/Mole), Raman scattering

                      1                      2                      3
                      A                      A                      A
 Frequencies --     62.8682               101.2645               411.5893
 Red. masses --      1.0264                 1.0738                 2.2854
 Frc consts  --      0.0024                 0.0065                 0.2281
 IR Inten    --      0.0000                 0.3832                 0.2704

                      4                      5                      6
                      A                      A                      A
 Frequencies --    453.8669               464.6310               604.7297
 Red. masses --      2.1183                 2.2766                 1.0115
 Frc consts  --      0.2571                 0.2896                 0.2179
 IR Inten    --      0.0089                 9.1267                 0.0000

                      7                      8                      9
                      A                      A                      A
 Frequencies --    994.1971              1002.3633              1036.8140
 Red. masses --      1.2678                 1.2209                 1.4181
 Frc consts  --      0.7383                 0.7227                 0.8982
 IR Inten    --      0.0209                 0.0000                 1.6283

                     10                     11                     12
                      A                      A                      A
 Frequencies --   1040.4676              1049.4687              1098.0055
 Red. masses --      1.3029                 2.2864                 1.5214
 Frc consts  --      0.8311                 1.4837                 1.0807
 IR Inten    --     50.4118                 1.0227                 2.1179

                     13                     14                     15
                      A                      A                      A
 Frequencies --   1119.9260              1380.9257              1382.8743
 Red. masses --      1.6447                 1.0865                 1.0885
 Frc consts  --      1.2154                 1.2207                 1.2265
 IR Inten    --      2.2578                 0.5984                 2.5584

                     16                     17                     18
                      A                      A                      A
 Frequencies --   1384.6528              1388.4163              1415.3153
 Red. masses --      1.0703                 1.0645                 1.0981
 Frc consts  --      1.2090                 1.2090                 1.2960
 IR Inten    --      0.0000                 4.7777                 0.8266

                     19                     20                     21
                      A                      A                      A
 Frequencies --   1418.4234              1457.3786              1492.0351
 Red. masses --      1.1656                 1.3274                 6.2792
 Frc consts  --      1.3817                 1.6611                 8.2359
 IR Inten    --      0.5870                 0.4492                 2.0356

                     22                     23                     24
                      A                      A                      A
 Frequencies --   1882.8435              3046.8046              3047.5402
 Red. masses --      8.8786                 1.0893                 1.0897
 Frc consts  --     18.5449                 5.9576                 5.9628
 IR Inten    --      2.1991                 0.0000                 1.7436

                     25                     26                     27
                      A                      A                      A
 Frequencies --   3057.4204              3059.1101              3148.6099
 Red. masses --      1.0902                 1.0916                 1.0287
 Frc consts  --      6.0046                 6.0185                 6.0085
 IR Inten    --      0.1417                 1.4055                 0.4036

                     28                     29                     30
                      A                      A                      A
 Frequencies --   3148.8301              3178.6972              3217.6438
 Red. masses --      1.0279                 1.1047                 1.0536
 Frc consts  --      6.0047                 6.5764                 6.4267
 IR Inten    --      0.3393                 5.6865                28.6988

 - Thermochemistry -
 -------------------
 Temperature   298.150 Kelvin.  Pressure   1.00000 Atm.
 Atom     1 has atomic number  6 and mass  12.00000

 Molecular mass:    56.06260 amu.
 Principal axes and moments of inertia in atomic units:
                           1         2         3
     Eigenvalues --   197.86793 209.82896 384.07487
           X            1.00000   0.00000   0.00000
           Y           -0.00000   1.00000   0.00000
           Z           -0.00000  -0.00000   1.00000
 This molecule is an asymmetric top.
 Rotational symmetry number  1.
 Rotational temperatures (Kelvin)      0.43774     0.41278     0.22551
 Rotational constants (GHZ):           9.12094     8.60101     4.69893
 Zero-point vibrational energy     284398.5 (Joules/Mol)
                                   67.97287 (Kcal/Mol)
 Warning -- explicit consideration of   6 degrees of freedom as
           vibrations may cause significant error
 Vibrational temperatures:     90.45   145.70   592.18   653.01   668.50
          (Kelvin)            870.07  1430.43  1442.18  1491.74  1497.00
                             1509.95  1579.78  1611.32  1986.84  1989.65
                             1992.20  1997.62  2036.32  2040.79  2096.84
                             2146.70  2708.99  4383.67  4384.73  4398.94
                             4401.37  4530.14  4530.46  4573.43  4629.47

 Zero-point correction=                           0.108322 (Hartree/Particle)
 Thermal correction to Energy=                    0.113936
 Thermal correction to Enthalpy=                  0.114880
 Thermal correction to Gibbs Free Energy=         0.079885
 Sum of electronic and zero-point Energies=              0.106364
 Sum of electronic and thermal Energies=                 0.111979
 Sum of electronic and thermal Enthalpies=               0.112923
 Sum of electronic and thermal Free Energies=            0.077928

                     E (Thermal)             CV                S
                      KCal/Mol        Cal/Mol-Kelvin    Cal/Mol-Kelvin
 Total                   71.496             18.162             73.653
 Electronic               0.000              0.000              0.000
 Translational            0.889              2.981             37.993
 Rotational               0.889              2.981             24.282
 Vibrational             69.719             12.201             11.379
 Vibration     1          0.597              1.972              4.365
 Vibration     2          0.604              1.948              3.430
 Vibration     3          0.776              1.445              0.921
 Vibration     4          0.812              1.352              0.784
 Vibration     5          0.822              1.329              0.753
 Vibration     6          0.963              1.022              0.442

 Normal termination of Gaussian 09 at Sat Apr 16 11:43:05 2022.
