 Gaussian 09, Revision D.01,
 Gaussian 09:  AM64L-G09RevD.01 24-Apr-2013

 ----------
 #n AM1 Opt
 ----------

 -------------------------
 Optimisation de geometrie
 -------------------------
 Symbolic Z-matrix:
 Charge =  0 Multiplicity = 1

 SCF Done:  E(RAM1) = -0.186823177163     A.U. after   13 cycles
 SCF Done:  E(RAM1) = -0.182825701097     A.U. after   12 cycles
 SCF Done:  E(RAM1) = -0.190161444533     A.U. after   10 cycles
 SCF Done:  E(RAM1) = -0.193613637920     A.U. after   11 cycles
 SCF Done:  E(RAM1) = -0.195412173107     A.U. after   12 cycles
 SCF Done:  E(RAM1) = -0.195419227614     A.U. after   11 cycles
 SCF Done:  E(RAM1) = -0.195707630116     A.U. after   12 cycles
 SCF Done:  E(RAM1) = -0.195607262381     A.U. after   11 cycles
 SCF Done:  E(RAM1) = -0.195955805842     A.U. after    9 cycles
 SCF Done:  E(RAM1) = -0.196078148286     A.U. after   11 cycles
 SCF Done:  E(RAM1) = -0.196105029977     A.U. after   10 cycles
 SCF Done:  E(RAM1) = -0.196118388165     A.U. after   10 cycles
 SCF Done:  E(RAM1) = -0.196129324539     A.U. after   11 cycles
 SCF Done:  E(RAM1) = -0.196135723347     A.U. after   10 cycles
 SCF Done:  E(RAM1) = -0.196138362824     A.U. after   10 cycles
 SCF Done:  E(RAM1) = -0.196139152432     A.U. after    9 cycles
 SCF Done:  E(RAM1) = -0.196139785301     A.U. after    9 cycles
 SCF Done:  E(RAM1) = -0.196140141386     A.U. after    9 cycles
 Optimization completed.
    -- Stationary point found.

                         Standard orientation:
 ---------------------------------------------------------------------
 Center     Atomic      Atomic             Coordinates (Angstroms)
 Number     Number       Type             X           Y           Z
 ---------------------------------------------------------------------
      1          6           0        0.843322    1.097063    0.251075
      2          6           0        1.667450   -0.053624   -0.304881
      3          8           0        1.342488   -1.292419    0.290762
      4          6           0       -0.565372    1.157938   -0.297939
      5          6           0       -1.532670    0.212205    0.397419
      6          8           0       -1.584339   -0.986825   -0.365071
      7          1           0        1.369181    2.054006   -0.009458
      8          1           0        0.817287    1.019755    1.369662
      9          1           0        2.753411    0.097189   -0.055017
     10          1           0        1.550377   -0.115666   -1.420243
     11          1           0        0.434340   -1.503325    0.035308
     12          1           0       -0.557853    0.928352   -1.396713
     13          1           0       -0.956849    2.201960   -0.171476
     14          1           0       -2.558950    0.668048    0.438556
     15          1           0       -1.195583   -0.019517    1.443447
     16          1           0       -2.196933   -1.578348    0.086367
 ---------------------------------------------------------------------

 The electronic state is 1-A.
 Alpha  occ. eigenvalues --   -1.43865  -1.37753  -1.25037  -1.06011  -0.89465
 Alpha  occ. eigenvalues --   -0.79172  -0.69115  -0.65488  -0.61042  -0.57017
 Alpha  occ. eigenvalues --   -0.56462  -0.54048  -0.50510  -0.48899  -0.46154
 Alpha  occ. eigenvalues --   -0.43758  -0.42585  -0.41016  -0.39452
 Alpha virt. eigenvalues --    0.11895   0.12936   0.13598   0.14072   0.14662
 Alpha virt. eigenvalues --    0.15296   0.15828   0.15942   0.17209   0.17381
 Alpha virt. eigenvalues --    0.17679   0.18282   0.18507   0.22119   0.24731

 Mulliken charges:
               1
     1  C   -0.197738
     2  C   -0.014112
     3  O   -0.338914
     4  C   -0.165066
     5  C   -0.024094
     6  O   -0.341733
     7  H    0.085336
     8  H    0.093572
     9  H    0.097128
    10  H    0.064394
    11  H    0.214084
    12  H    0.104622
    13  H    0.085437
    14  H    0.063023
    15  H    0.070803
    16  H    0.203257
 Sum of Mulliken charges =  -0.00000

 Dipole moment (field-independent basis, Debye):
    X=             -1.7228    Y=              1.5156    Z=              0.4038  Tot=              2.3299
 N-N= 1.809638231769D+02 E-N=-3.101880495058D+02  KE=-2.499489541460D+01
 1\1\GINC-GTX1080DELTA\FOpt\RAM1\ZDO\C4H10O2\MVEROT\17-Apr-2022\0\\#n A
 M1 Opt\\Optimisation de geometrie\\0,1\C,1.6437379028,1.2753080015,2.0
 085493792\C,1.108803515,2.3153801264,1.036720501\O,1.4339670288,3.6353
 785767,1.4199671752\C,3.1229668767,0.998640803,1.8508262812\C,4.011941
 9726,2.0164044573,2.5490249532\O,4.3762496022,2.9994589382,1.588495077
 \H,1.0815854555,0.3195918384,1.8332314466\H,1.4243112677,1.608771147,3
 .0566647168\H,-0.0155306967,2.2964436989,1.0359282189\H,1.4822855271,2
 .1087694826,-0.00222596\H,2.3947523677,3.7226874158,1.3588166736\H,3.3
 919934795,0.9664407751,0.7614883408\H,3.3496220118,-0.0101617929,2.286

 Normal termination of Gaussian 09 at Sun Apr 17 23:11:22 2022.
