 Gaussian 09, Revision D.01,
 Gaussian 09:  AM64L-G09RevD.01 24-Apr-2013

 ----------
 #n AM1 Opt
 ----------

 ---------------------
 Geometry optimization
 ---------------------
 Symbolic Z-matrix:
 Charge =  0 Multiplicity = 1

 SCF Done:  E(RAM1) =  0.303432031274E-03 A.U. after   16 cycles
 SCF Done:  E(RAM1) =  0.690385143685E-03 A.U. after   15 cycles
 SCF Done:  E(RAM1) = -0.751853065458E-02 A.U. after   12 cycles
 SCF Done:  E(RAM1) = -0.101449978633E-01 A.U. after   15 cycles
 SCF Done:  E(RAM1) = -0.111619909646E-01 A.U. after   13 cycles
 SCF Done:  E(RAM1) = -0.112619929166E-01 A.U. after   12 cycles
 SCF Done:  E(RAM1) = -0.112737771805E-01 A.U. after   13 cycles
 SCF Done:  E(RAM1) = -0.113104104390E-01 A.U. after   13 cycles
 SCF Done:  E(RAM1) = -0.113742651446E-01 A.U. after   13 cycles
 SCF Done:  E(RAM1) =  0.190515727468     A.U. after   17 cycles
 SCF Done:  E(RAM1) = -0.148432648189E-01 A.U. after   14 cycles
 SCF Done:  E(RAM1) = -0.149092760111E-01 A.U. after   13 cycles
 SCF Done:  E(RAM1) = -0.149290341295E-01 A.U. after   12 cycles
 SCF Done:  E(RAM1) = -0.149361308834E-01 A.U. after   12 cycles
 SCF Done:  E(RAM1) = -0.149382149648E-01 A.U. after   12 cycles
 SCF Done:  E(RAM1) = -0.149396299347E-01 A.U. after   12 cycles
 SCF Done:  E(RAM1) = -0.149403286468E-01 A.U. after   11 cycles
 SCF Done:  E(RAM1) = -0.149405897722E-01 A.U. after   11 cycles
 SCF Done:  E(RAM1) = -0.149406572721E-01 A.U. after   10 cycles
 SCF Done:  E(RAM1) = -0.149406826253E-01 A.U. after   10 cycles
 Optimization completed.
    -- Stationary point found.

                         Standard orientation:
 ---------------------------------------------------------------------
 Center     Atomic      Atomic             Coordinates (Angstroms)
 Number     Number       Type             X           Y           Z
 ---------------------------------------------------------------------
      1          6           0       -0.347523   -1.401045    0.460863
      2          6           0       -1.588468   -0.679154    0.112354
      3          6           0        0.916884   -0.712171    0.123336
      4          8           0       -0.394899   -2.513323    1.008625
      5          6           0       -0.311474    1.452237    0.325517
      6          6           0        0.947537    0.708108    0.130026
      7          8           0       -0.366903    2.642602    0.677606
      8          6           0       -1.566483    0.719616    0.041016
      9          6           0       -2.775794   -1.374973   -0.130565
     10          6           0        2.168684    1.391030   -0.077504
     11          6           0       -2.735633    1.417961   -0.275841
     12          6           0        2.068648   -1.461597   -0.188512
     13          6           0       -3.935418   -0.673570   -0.463349
     14          6           0       -3.914950    0.718803   -0.535990
     15          6           0        3.277227   -0.750671   -0.462438
     16          6           0        3.325747    0.614693   -0.405182
     17          1           0       -2.784105   -2.473627   -0.050494
     18          1           0       -2.714084    2.519065   -0.308916
     19          1           0       -4.868059   -1.222560   -0.662494
     20          1           0       -4.831687    1.270757   -0.792694
     21          1           0        4.280285    1.129118   -0.604950
     22          1           0        4.188936   -1.314038   -0.721466
     23          7           0        2.066462   -2.846128   -0.345391
     24          7           0        2.329898    2.755988    0.074086
     25          1           0        1.515042    3.318632    0.172588
     26          1           0        3.084842    3.167629   -0.421218
     27          1           0        2.955332   -3.276052   -0.218400
     28          1           0        1.319473   -3.337767    0.094935
 ---------------------------------------------------------------------

 The electronic state is 1-A.
 Alpha  occ. eigenvalues --   -1.53130  -1.45760  -1.44594  -1.39400  -1.34223
 Alpha  occ. eigenvalues --   -1.26341  -1.21738  -1.17265  -1.14879  -1.04931
 Alpha  occ. eigenvalues --   -0.97065  -0.92964  -0.89057  -0.82916  -0.78976
 Alpha  occ. eigenvalues --   -0.75330  -0.69691  -0.67144  -0.65874  -0.64397
 Alpha  occ. eigenvalues --   -0.61250  -0.60865  -0.59800  -0.58752  -0.58165
 Alpha  occ. eigenvalues --   -0.57083  -0.54809  -0.54724  -0.53219  -0.52397
 Alpha  occ. eigenvalues --   -0.51896  -0.51303  -0.48590  -0.48297  -0.48025
 Alpha  occ. eigenvalues --   -0.46491  -0.45539  -0.40617  -0.39498  -0.38506
 Alpha  occ. eigenvalues --   -0.37636  -0.36790  -0.36717  -0.29815
 Alpha virt. eigenvalues --   -0.04059  -0.00510   0.00055   0.01108   0.05100
 Alpha virt. eigenvalues --    0.05328   0.08953   0.09590   0.10094   0.10304
 Alpha virt. eigenvalues --    0.10602   0.11213   0.12592   0.13575   0.13620

 Mulliken charges:
               1
     1  C    0.321267
     2  C   -0.106922
     3  C   -0.145371
     4  O   -0.312357
     5  C    0.316063
     6  C   -0.165261
     7  O   -0.318062
     8  C   -0.105844
     9  C   -0.086664
    10  C    0.107696
    11  C   -0.087543
    12  C    0.075388
    13  C   -0.119056
    14  C   -0.119567
    15  C   -0.130600
    16  C   -0.150011
    17  H    0.154750
    18  H    0.155446
    19  H    0.139438
    20  H    0.139223
    21  H    0.138285
    22  H    0.138888
    23  N   -0.334027
    24  N   -0.348759
    25  H    0.235095
    26  H    0.200565
    27  H    0.189362
    28  H    0.218576
 Sum of Mulliken charges =  -0.00000

 Dipole moment (field-independent basis, Debye):
    X=              1.2249    Y=              0.1405    Z=             -2.4127  Tot=              2.7095
 N-N= 6.673684459268D+02 E-N=-1.207406966417D+03  KE=-6.223060589944D+01
 1\1\GINC-GTX1080DELTA\FOpt\RAM1\ZDO\C14H10N2O2\MVEROT\12-Apr-2022\0\\#
 n AM1 Opt\\Geometry optimization\\0,1\C,0.035593573,1.454456358,0.5017
 936512\C,1.2829163323,0.7224995513,0.2002073158\C,-1.2226294826,0.7380
 209905,0.2004746642\O,0.0730372586,2.597008481,0.9841044352\C,0.020047
 4712,-1.4020541189,0.5324916488\C,-1.2433666794,-0.6796508509,0.289645
 3983\O,0.0824267354,-2.5695085882,0.9534053816\C,1.2710017816,-0.67817
 46373,0.2102621645\C,2.4662851331,1.4115685405,-0.0786071646\C,-2.4588
 815844,-1.3822752078,0.1179077593\C,2.4462435,-1.3853043901,-0.0613470
 172\C,-2.3783801602,1.4597219658,-0.1584629196\C,3.6320843693,0.700392

 Normal termination of Gaussian 09 at Tue Apr 12 01:06:58 2022.
